/home/zfg2013/blue_zfg2013/INPS
c0703a-s21.ufhpc
Fri Aug  4 00:39:52 EDT 2023

                                 *****************
                                 * O   R   C   A *
                                 *****************

           --- An Ab Initio, DFT and Semiempirical electronic structure package ---

                  #######################################################
                  #                        -***-                        #
                  #          Department of theory and spectroscopy      #
                  #               Directorship: Frank Neese             #
                  #        Max Planck Institute fuer Kohlenforschung    #
                  #                Kaiser Wilhelm Platz 1               #
                  #                 D-45470 Muelheim/Ruhr               #
                  #                      Germany                        #
                  #                                                     #
                  #                  All rights reserved                #
                  #                        -***-                        #
                  #######################################################


                         Program Version 4.2.1 -  RELEASE  -


 With contributions from (in alphabetic order):
   Daniel Aravena         : Magnetic Suceptibility
   Michael Atanasov       : Ab Initio Ligand Field Theory (pilot matlab implementation)
   Alexander A. Auer      : GIAO ZORA, VPT2
   Ute Becker             : Parallelization
   Giovanni Bistoni       : ED, misc. LED, open-shell LED, HFLD
   Martin Brehm           : Molecular dynamics
   Dmytro Bykov           : SCF Hessian
   Vijay G. Chilkuri      : MRCI spin determinant printing, contributions to CSF-ICE
   Dipayan Datta          : RHF DLPNO-CCSD density
   Achintya Kumar Dutta   : EOM-CC, STEOM-CC
   Dmitry Ganyushin       : Spin-Orbit,Spin-Spin,Magnetic field MRCI
   Miquel Garcia          : C-PCM Hessian, Gaussian charge scheme
   Yang Guo               : DLPNO-NEVPT2, CIM, IAO-localization
   Andreas Hansen         : Spin unrestricted coupled pair/coupled cluster methods
   Benjamin Helmich-Paris : CASSCF linear response (MC-RPA)
   Lee Huntington         : MR-EOM, pCC
   Robert Izsak           : Overlap fitted RIJCOSX, COSX-SCS-MP3, EOM
   Christian Kollmar      : KDIIS, OOCD, Brueckner-CCSD(T), CCSD density
   Simone Kossmann        : Meta GGA functionals, TD-DFT gradient, OOMP2, MP2 Hessian
   Martin Krupicka        : AUTO-CI
   Lucas Lang             : DCDCAS
   Dagmar Lenk            : GEPOL surface, SMD
   Dimitrios Liakos       : Extrapolation schemes; Compound Job, initial MDCI parallelization
   Dimitrios Manganas     : Further ROCIS development; embedding schemes
   Dimitrios Pantazis     : SARC Basis sets
   Taras Petrenko         : DFT Hessian,TD-DFT gradient, ASA, ECA, R-Raman, ABS, FL, XAS/XES, NRVS
   Peter Pinski           : DLPNO-MP2, DLPNO-MP2 Gradient
   Christoph Reimann      : Effective Core Potentials
   Marius Retegan         : Local ZFS, SOC
   Christoph Riplinger    : Optimizer, TS searches, QM/MM, DLPNO-CCSD(T), (RO)-DLPNO pert. Triples
   Tobias Risthaus        : Range-separated hybrids, TD-DFT gradient, RPA, STAB
   Michael Roemelt        : Original ROCIS implementation
   Masaaki Saitow         : Open-shell DLPNO-CCSD energy and density
   Barbara Sandhoefer     : DKH picture change effects
   Avijit Sen             : IP-ROCIS
   Kantharuban Sivalingam : CASSCF convergence, NEVPT2, FIC-MRCI
   Bernardo de Souza      : ESD, SOC TD-DFT
   Georgi Stoychev        : AutoAux, RI-MP2 NMR
   Willem Van den Heuvel  : Paramagnetic NMR
   Boris Wezisla          : Elementary symmetry handling
   Frank Wennmohs         : Technical directorship


 We gratefully acknowledge several colleagues who have allowed us to
 interface, adapt or use parts of their codes:
   Stefan Grimme, W. Hujo, H. Kruse,             : VdW corrections, initial TS optimization,
                  C. Bannwarth                     DFT functionals, gCP, sTDA/sTD-DF
   Ed Valeev, F. Pavosevic, A. Kumar             : LibInt (2-el integral package), F12 methods
   Garnet Chan, S. Sharma, J. Yang, R. Olivares  : DMRG
   Ulf Ekstrom                                   : XCFun DFT Library
   Mihaly Kallay                                 : mrcc  (arbitrary order and MRCC methods)
   Andreas Klamt, Michael Diedenhofen            : otool_cosmo (COSMO solvation model)
   Jiri Pittner, Ondrej Demel                    : Mk-CCSD
   Frank Weinhold                                : gennbo (NPA and NBO analysis)
   Christopher J. Cramer and Donald G. Truhlar   : smd solvation model
   Lars Goerigk                                  : TD-DFT with DH, B97 family of functionals
   V. Asgeirsson, H. Jonsson                     : NEB implementation
   FAccTs GmbH                                   : IRC, NEB, NEB-TS, Multilevel, MM, QM/MM, CI optimization
   S Lehtola, MJT Oliveira, MAL Marques          : LibXC Library


 Your calculation uses the libint2 library for the computation of 2-el integrals
 For citations please refer to: http://libint.valeyev.net

 Your ORCA version has been built with support for libXC version: 4.2.3
 For citations please refer to: https://tddft.org/programs/libxc/

 This ORCA versions uses:
   CBLAS   interface :  Fast vector & matrix operations
   LAPACKE interface :  Fast linear algebra routines
   SCALAPACK package :  Parallel linear algebra routines


Your calculation utilizes the geometrical counterpoise correction gCP
Please cite in your paper:
H.Kruse, S. Grimme J.Chem.Phys., 136, (2012), 154101 
   

Your calculation utilizes the atom-pairwise dispersion correction
with the Becke-Johnson damping scheme (D3BJ)
Cite in your paper:
S.Grimme, S.Ehrlich, L.Goerigk, J Comput Chem, (2011), 32, 1456–1465 
S.Grimme, J.Antony, S.Ehrlich and H.Krieg, J.Chem.Phys., 132, (2010), 154104 
   

Your calculation utilizes the SMD solvation module
Please cite in your paper:
A.V. Marenich, C.J. Cramer, D.G. Truhlar J. Phys. Chem. B, 113, (2009), 6378 

----- Orbital basis set information -----
Your calculation utilizes the basis: MINIX,
   a combination of small basis sets by S. Grimme (see manual for definitions).

================================================================================
                                        WARNINGS
                       Please study these warnings very carefully!
================================================================================


INFO   : the flag for use of LIBINT has been found!

================================================================================
                                       INPUT FILE
================================================================================
NAME = HKSYMSMGD.inp
|  1> !HF-3c CPCM KDIIS SmallPrint
|  2> %PAL NPROCS 15 END
|  3> %maxcore 10000
|  4> %CPCM
|  5> SMD TRUE
|  6> SMDSOLVENT "WATER"
|  7> END
|  8> 
|  9> %scf
| 10> SCFmode Direct
| 11> maxiter 10000
| 12> 
| 13> end
| 14> 
| 15> %geom
| 16> 
| 17> Constraints
| 18> {C 2 C}
| 19> {C 21 C}
| 20> {C 43 C}
| 21> {C 54 C}
| 22> {C 75 C}
| 23> {C 92 C}
| 24> {C 103 C}
| 25> {C 120 C}
| 26> {C 127 C}
| 27> 
| 28> end
| 29> 
| 30> maxiter 10000
| 31> 
| 32> end
| 33> 
| 34> * xyz 0 1
| 35>    N        0.00000         0.00000         0.00000
| 36>    C        1.46145         0.00000         0.00000
| 37>    C        1.94774         0.00000         1.45615
| 38>    O        1.18426         0.00000         2.41946
| 39>    C        2.04411         1.20336         -0.76878
| 40>    H        2.63381         1.85004         -0.10703
| 41>    H        1.24387         1.83827         -1.17112
| 42>    C        2.90609         0.76454         -1.90397
| 43>    N        2.40386         0.09306         -2.99477
| 44>    C        3.45453         -0.18863         -3.81870
| 45>    H        3.33445         -0.73115         -4.74678
| 46>    N        4.58505         0.27510         -3.33539
| 47>    C        4.25427         0.88487         -2.15432
| 48>    H        5.00749         1.36841         -1.54511
| 49>    H        1.43192         -0.17656         -3.13345
| 50>    H        -0.46323         0.13431         0.89571
| 51>    H        1.77077         -0.95781         -0.43895
| 52>    H        -0.34000         0.08381         -0.95801
| 53>    H        -0.34000         0.94706         -0.16699
| 54>    N        3.26069         -0.00000         1.72406
| 55>    C        3.72296         0.00022         3.10830
| 56>    C        5.25957         0.00016         3.05115
| 57>    O        5.89478         -0.00005         1.99805
| 58>    C        3.17221         -1.22220         3.85582
| 59>    C        3.49760         -1.23091         5.35214
| 60>    C        2.76820         -2.36936         6.07164
| 61>    C        3.16412         -2.43597         7.54599
| 62>    N        2.43343         -3.50207         8.21876
| 63>    H        3.37443         0.85767         3.64516
| 64>    H        3.56358         -2.10444         3.39388
| 65>    H        2.11168         -1.22213         3.71379
| 66>    H        3.21324         -0.29072         5.77650
| 67>    H        4.55447         -1.35132         5.46806
| 68>    H        3.00258         -3.29454         5.58790
| 69>    H        1.71448         -2.20937         5.97690
| 70>    H        2.94242         -1.49942         8.01356
| 71>    H        4.21673         -2.61502         7.61570
| 72>    H        2.75555         -3.57872         9.18352
| 73>    H        2.64374         -4.39381         7.77046
| 74>    H        1.43137         -3.32635         8.14527
| 75>    H        3.96942         -0.42893         1.12898
| 76>    N        5.97225         0.00033         4.18591
| 77>    C        7.43248         0.00005         4.13160
| 78>    C        7.94014         0.00034         5.58431
| 79>    O        7.18936         0.00073         6.55905
| 80>    H        7.75894         -0.93678         3.66280
| 81>    C        7.99408         1.20586         3.36645
| 82>    H        7.51616         1.30516         2.38758
| 83>    H        7.83043         2.13745         3.92113
| 84>    O        9.40259         1.06292         3.14691
| 85>    H        9.64040         1.72060         2.46705
| 86>    H        5.54956         0.04275         5.11011
| 87>    N        9.25668         0.00016         5.83396
| 88>    C        9.73887         0.00066         7.21380
| 89>    C        11.27545         0.00030         7.14375
| 90>    O        11.89656         -0.00030         6.08139
| 91>    C        9.22038         -1.22365         7.98649
| 92>    H        8.18774         -1.45562         7.69337
| 93>    H        9.80251         -2.11628         7.72139
| 94>    C        9.23236         -1.03113         9.48570
| 95>    C        10.21965         -1.63038         10.27945
| 96>    H        10.98490         -2.26071         9.83089
| 97>    C        10.23608         -1.42149         11.65890
| 98>    H        11.00299         -1.88363         12.27411
| 99>    C        9.26082         -0.62546         12.24768
|100>    C        8.26661         -0.03030         11.47919
|101>    H        7.49712         0.58791         11.93113
|102>    C        8.25449         -0.23204         10.09779
|103>    H        7.47284         0.23301         9.49714
|104>    O        9.31421         -0.45176         13.59873
|105>    H        8.54531         0.07476         13.87320
|106>    H        9.41051         0.94008         7.67521
|107>    H        9.91624         -0.27036         5.10896
|108>    N        11.99760         0.00063         8.27251
|109>    C        13.45476         0.00007         8.20609
|110>    C        13.95693         0.00066         9.65904
|111>    O        13.20531         0.00144         10.63178
|112>    C        13.95963         1.22796         7.43592
|113>    C        15.42479         1.09729         7.02467
|114>    S        15.93159         2.55176         6.05158
|115>    C        17.61336         2.03165         5.63704
|116>    H        13.77397         -0.92604         7.71338
|117>    H        13.81971         2.12922         8.04841
|118>    H        13.34581         1.36127         6.53508
|119>    H        15.56593         0.19770         6.41659
|120>    H        16.07404         1.03565         7.90157
|121>    H        18.19836         1.87274         6.54660
|122>    H        18.09656         2.81308         5.04461
|123>    H        17.59201         1.11169         5.04705
|124>    H        11.56499         0.44517         9.07745
|125>    N        15.27261         0.00031         9.91320
|126>    C        15.74994         0.00109         11.29428
|127>    C        17.28792         0.00045         11.24234
|128>    O        17.92526         -0.00054         10.18991
|129>    H        15.43110         0.93820         11.76775
|130>    C        15.23935         -1.20426         12.09506
|131>    H        14.15389         -1.30337         12.00346
|132>    H        15.69714         -2.13611         11.74234
|133>    O        15.54398         -1.06078         13.48760
|134>    H        14.99596         -1.71814         13.95542
|135>    H        15.98144         -0.04257         9.18497
|136>    N        17.99671         0.00097         12.37954
|137>    C        19.45455         0.00013         12.33030
|138>    C        19.93955         0.00103         13.78908
|139>    O        19.17651         0.00221         14.75288
|140>    C        19.96868         1.22774         11.56581
|141>    C        21.43857         1.09670         11.17190
|142>    S        21.95706         2.55082         10.20447
|143>    C        23.64352         2.03031         9.80992
|144>    H        19.77939         -0.92616         11.84164
|145>    H        19.82171         2.12918         12.17637
|146>    H        19.36556         1.36090         10.65776
|147>    H        21.58672         0.19692         10.56577
|148>    H        22.07742         1.03518         12.05642
|149>    H        24.21772         1.87154         10.72636
|150>    H        24.13380         2.81150         9.22303
|151>    H        23.62896         1.11019         9.21997
|152>    H        17.55472         0.44580         13.17920
|153>    N        21.25214         0.00053         14.05873
|154>    C        21.70858         0.00159         15.43160
|155>    C        23.23340         0.00075         15.47420
|156>    O        23.94107         -0.00063         14.46994
|157>    H        21.32450         0.89828         15.92968
|158>    H        21.32261         -0.89071         15.93259
|159>    H        21.95686         0.00194         13.32678
|160>    N        23.87073         0.00151         16.65293
|161>    C        25.33440         0.00049         16.69382
|162>    C        25.71735         0.00177         18.18689
|163>    O        24.88306         0.00333         19.09115
|164>    C        25.90771         1.22549         15.98265
|165>    C        27.35303         1.02552         15.62962
|166>    O        28.07329         0.09933         15.96669
|167>    O        27.84129         2.04586         14.89888
|168>    H        25.67867         -0.93683         16.24036
|169>    H        25.82221         2.11895         16.61154
|170>    H        25.36857         1.40806         15.04585
|171>    H        23.38192         0.20172         17.52275
|172>    O        27.03705         0.00111         18.47600
|173> *
|174> 
|175>                          ****END OF INPUT****
================================================================================

                       ****************************
                       * Single Point Calculation *
                       ****************************

---------------------------------
CARTESIAN COORDINATES (ANGSTROEM)
---------------------------------
  N      0.000000    0.000000    0.000000
  C      1.461450    0.000000    0.000000
  C      1.947740    0.000000    1.456150
  O      1.184260    0.000000    2.419460
  C      2.044110    1.203360   -0.768780
  H      2.633810    1.850040   -0.107030
  H      1.243870    1.838270   -1.171120
  C      2.906090    0.764540   -1.903970
  N      2.403860    0.093060   -2.994770
  C      3.454530   -0.188630   -3.818700
  H      3.334450   -0.731150   -4.746780
  N      4.585050    0.275100   -3.335390
  C      4.254270    0.884870   -2.154320
  H      5.007490    1.368410   -1.545110
  H      1.431920   -0.176560   -3.133450
  H     -0.463230    0.134310    0.895710
  H      1.770770   -0.957810   -0.438950
  H     -0.340000    0.083810   -0.958010
  H     -0.340000    0.947060   -0.166990
  N      3.260690   -0.000000    1.724060
  C      3.722960    0.000220    3.108300
  C      5.259570    0.000160    3.051150
  O      5.894780   -0.000050    1.998050
  C      3.172210   -1.222200    3.855820
  C      3.497600   -1.230910    5.352140
  C      2.768200   -2.369360    6.071640
  C      3.164120   -2.435970    7.545990
  N      2.433430   -3.502070    8.218760
  H      3.374430    0.857670    3.645160
  H      3.563580   -2.104440    3.393880
  H      2.111680   -1.222130    3.713790
  H      3.213240   -0.290720    5.776500
  H      4.554470   -1.351320    5.468060
  H      3.002580   -3.294540    5.587900
  H      1.714480   -2.209370    5.976900
  H      2.942420   -1.499420    8.013560
  H      4.216730   -2.615020    7.615700
  H      2.755550   -3.578720    9.183520
  H      2.643740   -4.393810    7.770460
  H      1.431370   -3.326350    8.145270
  H      3.969420   -0.428930    1.128980
  N      5.972250    0.000330    4.185910
  C      7.432480    0.000050    4.131600
  C      7.940140    0.000340    5.584310
  O      7.189360    0.000730    6.559050
  H      7.758940   -0.936780    3.662800
  C      7.994080    1.205860    3.366450
  H      7.516160    1.305160    2.387580
  H      7.830430    2.137450    3.921130
  O      9.402590    1.062920    3.146910
  H      9.640400    1.720600    2.467050
  H      5.549560    0.042750    5.110110
  N      9.256680    0.000160    5.833960
  C      9.738870    0.000660    7.213800
  C     11.275450    0.000300    7.143750
  O     11.896560   -0.000300    6.081390
  C      9.220380   -1.223650    7.986490
  H      8.187740   -1.455620    7.693370
  H      9.802510   -2.116280    7.721390
  C      9.232360   -1.031130    9.485700
  C     10.219650   -1.630380   10.279450
  H     10.984900   -2.260710    9.830890
  C     10.236080   -1.421490   11.658900
  H     11.002990   -1.883630   12.274110
  C      9.260820   -0.625460   12.247680
  C      8.266610   -0.030300   11.479190
  H      7.497120    0.587910   11.931130
  C      8.254490   -0.232040   10.097790
  H      7.472840    0.233010    9.497140
  O      9.314210   -0.451760   13.598730
  H      8.545310    0.074760   13.873200
  H      9.410510    0.940080    7.675210
  H      9.916240   -0.270360    5.108960
  N     11.997600    0.000630    8.272510
  C     13.454760    0.000070    8.206090
  C     13.956930    0.000660    9.659040
  O     13.205310    0.001440   10.631780
  C     13.959630    1.227960    7.435920
  C     15.424790    1.097290    7.024670
  S     15.931590    2.551760    6.051580
  C     17.613360    2.031650    5.637040
  H     13.773970   -0.926040    7.713380
  H     13.819710    2.129220    8.048410
  H     13.345810    1.361270    6.535080
  H     15.565930    0.197700    6.416590
  H     16.074040    1.035650    7.901570
  H     18.198360    1.872740    6.546600
  H     18.096560    2.813080    5.044610
  H     17.592010    1.111690    5.047050
  H     11.564990    0.445170    9.077450
  N     15.272610    0.000310    9.913200
  C     15.749940    0.001090   11.294280
  C     17.287920    0.000450   11.242340
  O     17.925260   -0.000540   10.189910
  H     15.431100    0.938200   11.767750
  C     15.239350   -1.204260   12.095060
  H     14.153890   -1.303370   12.003460
  H     15.697140   -2.136110   11.742340
  O     15.543980   -1.060780   13.487600
  H     14.995960   -1.718140   13.955420
  H     15.981440   -0.042570    9.184970
  N     17.996710    0.000970   12.379540
  C     19.454550    0.000130   12.330300
  C     19.939550    0.001030   13.789080
  O     19.176510    0.002210   14.752880
  C     19.968680    1.227740   11.565810
  C     21.438570    1.096700   11.171900
  S     21.957060    2.550820   10.204470
  C     23.643520    2.030310    9.809920
  H     19.779390   -0.926160   11.841640
  H     19.821710    2.129180   12.176370
  H     19.365560    1.360900   10.657760
  H     21.586720    0.196920   10.565770
  H     22.077420    1.035180   12.056420
  H     24.217720    1.871540   10.726360
  H     24.133800    2.811500    9.223030
  H     23.628960    1.110190    9.219970
  H     17.554720    0.445800   13.179200
  N     21.252140    0.000530   14.058730
  C     21.708580    0.001590   15.431600
  C     23.233400    0.000750   15.474200
  O     23.941070   -0.000630   14.469940
  H     21.324500    0.898280   15.929680
  H     21.322610   -0.890710   15.932590
  H     21.956860    0.001940   13.326780
  N     23.870730    0.001510   16.652930
  C     25.334400    0.000490   16.693820
  C     25.717350    0.001770   18.186890
  O     24.883060    0.003330   19.091150
  C     25.907710    1.225490   15.982650
  C     27.353030    1.025520   15.629620
  O     28.073290    0.099330   15.966690
  O     27.841290    2.045860   14.898880
  H     25.678670   -0.936830   16.240360
  H     25.822210    2.118950   16.611540
  H     25.368570    1.408060   15.045850
  H     23.381920    0.201720   17.522750
  O     27.037050    0.001110   18.476000

----------------------------
CARTESIAN COORDINATES (A.U.)
----------------------------
  NO LB      ZA    FRAG     MASS         X           Y           Z
   0 N     7.0000    0    14.007    0.000000    0.000000    0.000000
   1 C     6.0000    0    12.011    2.761740    0.000000    0.000000
   2 C     6.0000    0    12.011    3.680695    0.000000    2.751725
   3 O     8.0000    0    15.999    2.237927    0.000000    4.572117
   4 C     6.0000    0    12.011    3.862808    2.274021   -1.452784
   5 H     1.0000    0     1.008    4.977180    3.496069   -0.202257
   6 H     1.0000    0     1.008    2.350574    3.473827   -2.213096
   7 C     6.0000    0    12.011    5.491714    1.444771   -3.597982
   8 N     7.0000    0    14.007    4.542637    0.175858   -5.659295
   9 C     6.0000    0    12.011    6.528116   -0.356459   -7.216297
  10 H     1.0000    0     1.008    6.301197   -1.381673   -8.970114
  11 N     7.0000    0    14.007    8.664489    0.519864   -6.302974
  12 C     6.0000    0    12.011    8.039405    1.672162   -4.071075
  13 H     1.0000    0     1.008    9.462785    2.585920   -2.919835
  14 H     1.0000    0     1.008    2.705937   -0.333650   -5.921362
  15 H     1.0000    0     1.008   -0.875378    0.253809    1.692647
  16 H     1.0000    0     1.008    3.346270   -1.809999   -0.829495
  17 H     1.0000    0     1.008   -0.642507    0.158378   -1.810377
  18 H     1.0000    0     1.008   -0.642507    1.789684   -0.315565
  19 N     7.0000    0    14.007    6.161811   -0.000000    3.258001
  20 C     6.0000    0    12.011    7.035375    0.000416    5.873836
  21 C     6.0000    0    12.011    9.939147    0.000302    5.765838
  22 O     8.0000    0    15.999   11.139520   -0.000094    3.775767
  23 C     6.0000    0    12.011    5.994608   -2.309623    7.286444
  24 C     6.0000    0    12.011    6.609506   -2.326083   10.114079
  25 C     6.0000    0    12.011    5.231140   -4.477442   11.473737
  26 C     6.0000    0    12.011    5.979320   -4.603316   14.259855
  27 N     7.0000    0    14.007    4.598516   -6.617953   15.531206
  28 H     1.0000    0     1.008    6.376749    1.620761    6.888354
  29 H     1.0000    0     1.008    6.734190   -3.976815    6.413504
  30 H     1.0000    0     1.008    3.990497   -2.309491    7.018046
  31 H     1.0000    0     1.008    6.072144   -0.549381   10.916003
  32 H     1.0000    0     1.008    8.606701   -2.553625   10.333136
  33 H     1.0000    0     1.008    5.674054   -6.225778   10.559601
  34 H     1.0000    0     1.008    3.239898   -4.175104   11.294704
  35 H     1.0000    0     1.008    5.560368   -2.833493   15.143434
  36 H     1.0000    0     1.008    7.968465   -4.941672   14.391587
  37 H     1.0000    0     1.008    5.207235   -6.762801   17.354338
  38 H     1.0000    0     1.008    4.995945   -8.303098   14.684041
  39 H     1.0000    0     1.008    2.704897   -6.285891   15.392330
  40 H     1.0000    0     1.008    7.501117   -0.810560    2.133463
  41 N     7.0000    0    14.007   11.285917    0.000624    7.910224
  42 C     6.0000    0    12.011   14.045352    0.000094    7.807592
  43 C     6.0000    0    12.011   15.004690    0.000643   10.552817
  44 O     8.0000    0    15.999   13.585921    0.001380   12.394808
  45 H     1.0000    0     1.008   14.662272   -1.770258    6.921689
  46 C     6.0000    0    12.011   15.106622    2.278745    6.361669
  47 H     1.0000    0     1.008   14.203484    2.466395    4.511872
  48 H     1.0000    0     1.008   14.797368    4.039195    7.409862
  49 O     8.0000    0    15.999   17.768320    2.008628    5.946798
  50 H     1.0000    0     1.008   18.217716    3.251463    4.662049
  51 H     1.0000    0     1.008   10.487149    0.080786    9.656708
  52 N     7.0000    0    14.007   17.492590    0.000302   11.024587
  53 C     6.0000    0    12.011   18.403797    0.001247   13.632106
  54 C     6.0000    0    12.011   21.307513    0.000567   13.499731
  55 O     8.0000    0    15.999   22.481240   -0.000567   11.492162
  56 C     6.0000    0    12.011   17.423993   -2.312363   15.092279
  57 H     1.0000    0     1.008   15.472586   -2.750723   14.538362
  58 H     1.0000    0     1.008   18.524059   -3.999190   14.591312
  59 C     6.0000    0    12.011   17.446632   -1.948553   17.925375
  60 C     6.0000    0    12.011   19.312340   -3.080972   19.425345
  61 H     1.0000    0     1.008   20.758453   -4.272123   18.577690
  62 C     6.0000    0    12.011   19.343388   -2.686227   22.032128
  63 H     1.0000    0     1.008   20.792638   -3.559545   23.194706
  64 C     6.0000    0    12.011   17.500414   -1.181948   23.144761
  65 C     6.0000    0    12.011   15.621629   -0.057259   21.692525
  66 H     1.0000    0     1.008   14.167504    1.110989   22.546568
  67 C     6.0000    0    12.011   15.598725   -0.438492   19.082058
  68 H     1.0000    0     1.008   14.121621    0.440325   17.946994
  69 O     8.0000    0    15.999   17.601306   -0.853703   25.697875
  70 H     1.0000    0     1.008   16.148296    0.141276   26.216549
  71 H     1.0000    0     1.008   17.783287    1.776494   14.504045
  72 H     1.0000    0     1.008   18.738978   -0.510906    9.654535
  73 N     7.0000    0    14.007   22.672178    0.001191   15.632778
  74 C     6.0000    0    12.011   25.425812    0.000132   15.507263
  75 C     6.0000    0    12.011   26.374775    0.001247   18.252940
  76 O     8.0000    0    15.999   24.954419    0.002721   20.091153
  77 C     6.0000    0    12.011   26.379878    2.320508   14.051852
  78 C     6.0000    0    12.011   29.148629    2.073578   13.274702
  79 S    16.0000    0    32.060   30.106342    4.822128   11.435829
  80 C     6.0000    0    12.011   33.284427    3.839262   10.652462
  81 H     1.0000    0     1.008   26.029031   -1.749962   14.576176
  82 H     1.0000    0     1.008   26.115467    4.023643   15.209291
  83 H     1.0000    0     1.008   25.219926    2.572427   12.349511
  84 H     1.0000    0     1.008   29.415345    0.373599   12.125598
  85 H     1.0000    0     1.008   30.375533    1.957095   14.931803
  86 H     1.0000    0     1.008   34.389916    3.538966   12.371281
  87 H     1.0000    0     1.008   34.197542    5.315951    9.532931
  88 H     1.0000    0     1.008   33.244081    2.100790    9.537542
  89 H     1.0000    0     1.008   21.854664    0.841249   17.153894
  90 N     7.0000    0    14.007   28.861050    0.000586   18.733233
  91 C     6.0000    0    12.011   29.763073    0.002060   21.343096
  92 C     6.0000    0    12.011   32.669434    0.000850   21.244944
  93 O     8.0000    0    15.999   33.873832   -0.001020   19.256139
  94 H     1.0000    0     1.008   29.160553    1.772941   22.237825
  95 C     6.0000    0    12.011   28.798198   -2.275722   22.856351
  96 H     1.0000    0     1.008   26.746976   -2.463012   22.683252
  97 H     1.0000    0     1.008   29.663296   -4.036663   22.189807
  98 O     8.0000    0    15.999   29.373865   -2.004584   25.487870
  99 H     1.0000    0     1.008   28.338258   -3.246814   26.371922
 100 H     1.0000    0     1.008   30.200545   -0.080446   17.357078
 101 N     7.0000    0    14.007   34.008853    0.001833   23.393940
 102 C     6.0000    0    12.011   36.763772    0.000246   23.300890
 103 C     6.0000    0    12.011   37.680289    0.001946   26.057585
 104 O     8.0000    0    15.999   36.238352    0.004176   27.878903
 105 C     6.0000    0    12.011   37.735336    2.320092   21.856213
 106 C     6.0000    0    12.011   40.513026    2.072463   21.111831
 107 S    16.0000    0    32.060   41.492830    4.820351   19.283654
 108 C     6.0000    0    12.011   44.679778    3.836730   18.538062
 109 H     1.0000    0     1.008   37.377630   -1.750189   22.377457
 110 H     1.0000    0     1.008   37.457603    4.023567   23.010005
 111 H     1.0000    0     1.008   36.595605    2.571728   20.140248
 112 H     1.0000    0     1.008   40.792989    0.372125   19.966412
 113 H     1.0000    0     1.008   41.720278    1.956207   22.783332
 114 H     1.0000    0     1.008   45.764858    3.536698   20.269883
 115 H     1.0000    0     1.008   45.606273    5.312965   17.429001
 116 H     1.0000    0     1.008   44.652263    2.097955   17.423218
 117 H     1.0000    0     1.008   33.173613    0.842440   24.905079
 118 N     7.0000    0    14.007   40.160724    0.001002   26.567149
 119 C     6.0000    0    12.011   41.023271    0.003005   29.161498
 120 C     6.0000    0    12.011   43.904763    0.001417   29.242000
 121 O     8.0000    0    15.999   45.242066   -0.001191   27.344224
 122 H     1.0000    0     1.008   40.297465    1.697503   30.102733
 123 H     1.0000    0     1.008   40.293893   -1.683198   30.108232
 124 H     1.0000    0     1.008   41.492452    0.003666   25.183964
 125 N     7.0000    0    14.007   45.109142    0.002853   31.469477
 126 C     6.0000    0    12.011   47.875078    0.000926   31.546748
 127 C     6.0000    0    12.011   48.598748    0.003345   34.368241
 128 O     8.0000    0    15.999   47.022169    0.006293   36.077045
 129 C     6.0000    0    12.011   48.958477    2.315840   30.202831
 130 C     6.0000    0    12.011   51.689736    1.937952   29.535701
 131 O     8.0000    0    15.999   53.050830    0.187706   30.172671
 132 O     8.0000    0    15.999   52.612413    3.866115   28.154803
 133 H     1.0000    0     1.008   48.525654   -1.770352   30.689833
 134 H     1.0000    0     1.008   48.796905    4.004235   31.391261
 135 H     1.0000    0     1.008   47.939650    2.660848   28.432536
 136 H     1.0000    0     1.008   44.185425    0.381196   33.113199
 137 O     8.0000    0    15.999   51.092620    0.002098   34.914580

--------------------------------
INTERNAL COORDINATES (ANGSTROEM)
--------------------------------
 N      0   0   0     0.000000000000     0.00000000     0.00000000
 C      1   0   0     1.461450000000     0.00000000     0.00000000
 C      2   1   0     1.535203825751   108.46705034     0.00000000
 O      3   2   1     1.229173651890   123.13404915     0.00000000
 C      2   1   3     1.542268022621   112.19712055   237.42706994
 H      5   2   1     1.097202886845   111.24028393   117.65762040
 H      5   2   1     1.097894458179   111.00952425     0.15449122
 C      5   2   1     1.491384876181   111.60442919   239.34855475
 N      8   5   2     1.375850647163   122.41774934    65.86697841
 C      9   8   5     1.364594207045   107.36071879   181.64955907
 H     10   9   8     1.081702197095   122.41863490   178.92627196
 N     10   9   8     1.314043203019   111.56098054   359.06026605
 C     12  10   9     1.369730340688   105.45507388   359.80727685
 H     13  12  10     1.082722551765   121.06297386   180.67549538
 H      9   8   5     1.018132825519   125.85277034   359.16782239
 H      1   2   3     1.017309005711   117.08735136     8.52785658
 H      2   1   3     1.098069196818   106.36136092   114.62127838
 H      1   2   3     1.020003566758   109.47114980   175.00029763
 H      1   2   3     1.020004070433   109.47113980    99.99986914
 N      3   2   1     1.340005026334   120.00003797   180.00000000
 C     20   3   2     1.459388220762   119.99984300   179.99002660
 C     21  20   3     1.537672402757   106.33687736   180.00012519
 O     22  21  20     1.229842021643   123.22756288     0.00000000
 C     21  20   3     1.535064288328   110.37251818    58.16474413
 C     24  21  20     1.531315793231   113.83641549   185.56113205
 C     25  24  21     1.531591659843   111.22731394   172.43834735
 C     26  25  24     1.528037126840   111.23998461   176.22998273
 N     27  26  25     1.457084952568   110.33214227   178.51601344
 H     21  20   3     1.070005758396   111.89115294   300.28598399
 H     24  21  20     1.070003017799   108.36877217    63.03250473
 H     24  21  20     1.069998320887   106.91268749   307.10887181
 H     25  24  21     1.069999652009   109.03016550    51.09911614
 H     25  24  21     1.070004771672   108.44427868   293.05895874
 H     26  25  24     1.069998319812   109.02670713    54.77055458
 H     26  25  24     1.069999208458   108.43652136   297.70502867
 H     27  26  25     1.069999297850   109.25590231    58.01274856
 H     27  26  25     1.070002896585   108.96840825   299.29206507
 H     28  27  26     1.019999203186   109.47121207   175.98163024
 H     28  27  26     1.020001673381   109.47122523    59.52586174
 H     28  27  26     1.020001246127   109.47157936   300.40222005
 H     20   3   2     1.019999688333   124.34411385   329.38206212
 N     22  21  20     1.339997413766   120.00067908   179.99997172
 C     42  22  21     1.461239647491   120.00064803   179.98990413
 C     43  42  22     1.538858376785   107.13232665   180.00004912
 O     44  43  42     1.230361259184   123.13290014     0.00000000
 H     43  42  22     1.097269347289   108.26170192   295.98765604
 C     43  42  22     1.534544505252   112.58790873    58.35068340
 H     47  43  42     1.093825622894   110.95577254   308.84099910
 H     47  43  42     1.096499499772   111.14602605    69.13723213
 O     47  43  42     1.432665374503   110.96577523   189.33772131
 H     50  47  43     0.975349269800   106.21526405   165.15572846
 H     42  22  21     1.017158754817   123.25962397   357.15279173
 N     44  43  42     1.340001017350   119.99960859   179.99969623
 C     53  44  43     1.461665444519   119.99941892   179.98983642
 C     54  53  44     1.538175941985   106.65193594   180.00034365
 O     55  54  53     1.230604226264   122.92295029     0.00000000
 C     54  53  44     1.537796050294   111.27456317    58.72500044
 H     57  54  53     1.098214361999   110.55380283   322.21933977
 H     57  54  53     1.098153752350   110.31100606    78.16453157
 C     57  54  53     1.511568091387   113.22138747   201.65933759
 C     60  57  54     1.401385446299   120.85679297   256.41694922
 H     61  60  57     1.088177166182   120.64099004   358.85330646
 C     61  60  57     1.395273191708   120.28206752   178.63025203
 H     63  61  60     1.086373633609   120.29817964   180.17397321
 C     63  61  60     1.389768943710   119.75798743     0.60095804
 C     65  63  61     1.390412107902   120.85041453   359.89731804
 H     66  65  63     1.085609611140   121.36540327   179.60848158
 C     66  65  63     1.396105970906   119.42203430   359.70174492
 H     68  66  65     1.089967269004   119.32997882   179.83436236
 O     65  63  61     1.363216154760   117.73428036   179.84525892
 H     70  65  63     0.971475322023   108.54614326   183.56928096
 H     54  53  44     1.096918143755   107.37564077   296.22001598
 H     53  44  43     1.016772080655   120.29917091   342.07385721
 N     55  54  53     1.339999951119   119.99979607   180.00043325
 C     74  55  54     1.458673094151   120.00016019   179.99008468
 C     75  74  55     1.537282914593   106.45637276   179.99956629
 O     76  75  74     1.229290990937   123.24111843     0.00000000
 C     75  74  55     1.534851588233   110.55691652    58.73964002
 C     78  75  74     1.527381758762   112.47018763   194.84565336
 S     79  78  75     1.821876331972   110.02040241   177.39333999
 C     80  79  78     1.808509927150    98.71468772   183.97738650
 H     75  74  55     1.096511696381   108.15549893   297.31582432
 H     78  75  74     1.098631509697   109.55076292    72.15191549
 H     78  75  74     1.098207291043   108.95750472   315.82474133
 H     79  78  75     1.094962992114   110.08794085    57.40862693
 H     79  78  75     1.092830573374   111.01866678   296.83749871
 H     81  80  79     1.093058453012   110.41167227   300.09155010
 H     81  80  79     1.093200983260   109.24901339   180.77134550
 H     81  80  79     1.093101287256   110.34009585    61.53803295
 H     74  55  54     1.016216328987   115.97090400   330.91525374
 N     76  75  74     1.340004212867   119.99980088   179.99945540
 C     91  76  75     1.461241425535   119.99978785   179.99007619
 C     92  91  76     1.538856930842   107.13196443   180.00057504
 O     93  92  91     1.230370741118   123.13287609     0.00000000
 H     92  91  76     1.097272955376   108.26197310   295.98765987
 C     92  91  76     1.534542074692   112.58787063    58.35112771
 H     96  92  91     1.093817518465   110.95656827   308.84016221
 H     96  92  91     1.096506956202   111.14627496    69.13754351
 O     96  92  91     1.432673584212   110.96545440   189.33688465
 H     99  96  92     0.975347959653   106.21481813   165.15604753
 H     91  76  75     1.017151707564   123.26028845   357.15403114
 N     93  92  91     1.340002751676   120.00006682   179.99991796
 C    102  93  92     1.458671569888   119.99980673   179.98941647
 C    103 102  93     1.537291416225   106.45588519   180.00000121
 O    104 103 102     1.229285106881   123.24097443     0.00000000
 C    103 102  93     1.534861859940   110.55647081    58.74092334
 C    106 103 102     1.527387698589   112.46965737   194.84520459
 S    107 106 103     1.821872020588   110.02004141   177.39316141
 C    108 107 106     1.808520858105    98.71477466   183.97739833
 H    103 102  93     1.096504804048   108.15639005   297.31655273
 H    106 103 102     1.098625399351   109.55083908    72.15169547
 H    106 103 102     1.098198580631   108.95720388   315.82318956
 H    107 106 103     1.094963948174   110.08846248    57.40811907
 H    107 106 103     1.092835606713   111.01829702   296.83736723
 H    109 108 107     1.093058016072   110.41118623   300.09183228
 H    109 108 107     1.093193563190   109.24872782   180.77164849
 H    109 108 107     1.093102836196   110.33970603    61.53748271
 H    102  93  92     1.016211102380   115.97122839   330.91543344
 N    104 103 102     1.340001447984   119.99933728   180.00025990
 C    119 104 103     1.446758664774   119.99942300   179.99025951
 C    120 119 104     1.525415188727   109.99075434   180.00007683
 O    121 120 119     1.228550723780   123.57084771     0.00000000
 H    120 119 104     1.095287217537   108.75312724   300.24263963
 H    120 119 104     1.093692420656   108.82877678    59.61766112
 H    119 104 103     1.016062532032   122.30513698     0.15866410
 N    121 120 119     1.339997954998   120.00000562   180.00040905
 C    126 121 120     1.464241408170   119.99993422   179.99034499
 C    127 126 121     1.541398834111   105.98560107   179.99963980
 O    128 127 126     1.230336695909   122.91931113     0.00000000
 C    127 126 121     1.528094278832   111.19101405    59.38399965
 C    130 127 126     1.501188890247   111.33845801   198.32963173
 O    131 130 127     1.220745087477   127.17060617   352.12420543
 O    131 130 127     1.346652327366   112.07126200   174.51868626
 H    127 126 121     1.096684360653   107.62856198   296.34872192
 H    130 127 126     1.095939621375   110.92908080    77.28678323
 H    130 127 126     1.096174249150   110.28689865   317.13073243
 H    126 121 120     1.017647332134   121.56896949   346.72503670
 O    128 127 126     1.350997082787   116.74209234   179.99983157

---------------------------
INTERNAL COORDINATES (A.U.)
---------------------------
 N      0   0   0     0.000000000000     0.00000000     0.00000000
 C      1   0   0     2.761740258419     0.00000000     0.00000000
 C      2   1   0     2.901114790417   108.46705034     0.00000000
 O      3   2   1     2.322801573103   123.13404915     0.00000000
 C      2   1   3     2.914464187858   112.19712055   237.42706994
 H      5   2   1     2.073412969484   111.24028393   117.65762040
 H      5   2   1     2.074719849908   111.00952425     0.15449122
 C      5   2   1     2.818308976253   111.60442919   239.34855475
 N      8   5   2     2.599980924317   122.41774934    65.86697841
 C      9   8   5     2.578709335250   107.36071879   181.64955907
 H     10   9   8     2.044120910970   122.41863490   178.92627196
 N     10   9   8     2.483181781846   111.56098054   359.06026605
 C     12  10   9     2.588415221222   105.45507388   359.80727685
 H     13  12  10     2.046049101856   121.06297386   180.67549538
 H      9   8   5     1.923992208187   125.85277034   359.16782239
 H      1   2   3     1.922435414365   117.08735136     8.52785658
 H      2   1   3     2.075050058080   106.36136092   114.62127838
 H      1   2   3     1.927527396796   109.47114980   175.00029763
 H      1   2   3     1.927528348603   109.47113980    99.99986914
 N      3   2   1     2.532242517849   120.00003797   180.00000000
 C     20   3   2     2.757844060312   119.99984300   179.99002660
 C     21  20   3     2.905779724899   106.33687736   180.00012519
 O     22  21  20     2.324064608894   123.22756288     0.00000000
 C     21  20   3     2.900851102903   110.37251818    58.16474413
 C     24  21  20     2.893767473756   113.83641549   185.56113205
 C     25  24  21     2.894288786101   111.22731394   172.43834735
 C     26  25  24     2.887571692191   111.23998461   176.22998273
 N     27  26  25     2.753491514211   110.33214227   178.51601344
 H     21  20   3     2.022017845087   111.89115294   300.28598399
 H     24  21  20     2.022012666110   108.36877217    63.03250473
 H     24  21  20     2.022003790231   106.91268749   307.10887181
 H     25  24  21     2.022006305689   109.03016550    51.09911614
 H     25  24  21     2.022015980448   108.44427868   293.05895874
 H     26  25  24     2.022003788200   109.02670713    54.77055458
 H     26  25  24     2.022005467497   108.43652136   297.70502867
 H     27  26  25     2.022005636425   109.25590231    58.01274856
 H     27  26  25     2.022012437048   108.96840825   299.29206507
 H     28  27  26     1.927519150839   109.47121207   175.98163024
 H     28  27  26     1.927523818831   109.47122523    59.52586174
 H     28  27  26     1.927523011438   109.47157936   300.40222005
 H     20   3   2     1.927520067635   124.34411385   329.38206212
 N     22  21  20     2.532228132181   120.00067908   179.99997172
 C     42  22  21     2.761342749786   120.00064803   179.98990413
 C     43  42  22     2.908020891013   107.13232665   180.00004912
 O     44  43  42     2.325045825644   123.13290014     0.00000000
 H     43  42  22     2.073538561523   108.26170192   295.98765604
 C     43  42  22     2.899868855241   112.58790873    58.35068340
 H     47  43  42     2.067030865536   110.95577254   308.84099910
 H     47  43  42     2.072083760551   111.14602605    69.13723213
 O     47  43  42     2.707345199363   110.96577523   189.33772131
 H     50  47  43     1.843143004843   106.21526405   165.15572846
 H     42  22  21     1.922151481324   123.25962397   357.15279173
 N     44  43  42     2.532234941968   119.99960859   179.99969623
 C     53  44  43     2.762147389557   119.99941892   179.98983642
 C     54  53  44     2.906731276137   106.65193594   180.00034365
 O     55  54  53     2.325504966886   122.92295029     0.00000000
 C     54  53  44     2.906013384882   111.27456317    58.72500044
 H     57  54  53     2.075324380516   110.55380283   322.21933977
 H     57  54  53     2.075209844879   110.31100606    78.16453157
 C     57  54  53     2.856449725496   113.22138747   201.65933759
 C     60  57  54     2.648234701569   120.85679297   256.41694922
 H     61  60  57     2.056356829271   120.64099004   358.85330646
 C     61  60  57     2.636684214331   120.28206752   178.63025203
 H     63  61  60     2.052948646633   120.29817964   180.17397321
 C     63  61  60     2.626282693040   119.75798743     0.60095804
 C     65  63  61     2.627498097223   120.85041453   359.89731804
 H     66  65  63     2.051504853408   121.36540327   179.60848158
 C     66  65  63     2.638257938945   119.42203430   359.70174492
 H     68  66  65     2.059739633356   119.32997882   179.83436236
 O     65  63  61     2.576105193835   117.73428036   179.84525892
 H     70  65  63     1.835822304487   108.54614326   183.56928096
 H     54  53  44     2.072874883027   107.37564077   296.22001598
 H     53  44  43     1.921420773056   120.29917091   342.07385721
 N     55  54  53     2.532232927084   119.99979607   180.00043325
 C     74  55  54     2.756492666865   120.00016019   179.99008468
 C     75  74  55     2.905043698937   106.45637276   179.99956629
 O     76  75  74     2.323023311768   123.24111843     0.00000000
 C     75  74  55     2.900449157974   110.55691652    58.73964002
 C     78  75  74     2.886333226008   112.47018763   194.84565336
 S     79  78  75     3.442847317300   110.02040241   177.39333999
 C     80  79  78     3.417588472791    98.71468772   183.97738650
 H     75  74  55     2.072106808801   108.15549893   297.31582432
 H     78  75  74     2.076112675425   109.55076292    72.15191549
 H     78  75  74     2.075311018347   108.95750472   315.82474133
 H     79  78  75     2.069180181875   110.08794085    57.40862693
 H     79  78  75     2.065150494452   111.01866678   296.83749871
 H     81  80  79     2.065581124559   110.41167227   300.09155010
 H     81  80  79     2.065850467694   109.24901339   180.77134550
 H     81  80  79     2.065662069550   110.34009585    61.53803295
 H     74  55  54     1.920370554604   115.97090400   330.91525374
 N     76  75  74     2.532240980618   119.99980088   179.99945540
 C     91  76  75     2.761346109802   119.99978785   179.99007619
 C     92  91  76     2.908018158578   107.13196443   180.00057504
 O     93  92  91     2.325063743903   123.13287609     0.00000000
 H     92  91  76     2.073545379819   108.26197310   295.98765987
 C     92  91  76     2.899864262147   112.58787063    58.35112771
 H     96  92  91     2.067015550383   110.95656827   308.84016221
 H     96  92  91     2.072097851162   111.14627496    69.13754351
 O     96  92  91     2.707360713465   110.96545440   189.33688465
 H     99  96  92     1.843140529024   106.21481813   165.15604753
 H     91  76  75     1.922138163946   123.26028845   357.15403114
 N     93  92  91     2.532238219369   120.00006682   179.99991796
 C    102  93  92     2.756489786426   119.99980673   179.98941647
 C    103 102  93     2.905059764694   106.45588519   180.00000121
 O    104 103 102     2.323012192514   123.24097443     0.00000000
 C    103 102  93     2.900468568689   110.55647081    58.74092334
 C    106 103 102     2.886344450653   112.46965737   194.84520459
 S    107 106 103     3.442839169964   110.02004141   177.39316141
 C    108 107 106     3.417609129302    98.71477466   183.97739833
 H    103 102  93     2.072093784179   108.15639005   297.31655273
 H    106 103 102     2.076101128544   109.55083908    72.15169547
 H    106 103 102     2.075294558054   108.95720388   315.82318956
 H    107 106 103     2.069181988565   110.08846248    57.40811907
 H    107 106 103     2.065160006085   111.01829702   296.83736723
 H    109 108 107     2.065580298864   110.41118623   300.09183228
 H    109 108 107     2.065836445795   109.24872782   180.77164849
 H    109 108 107     2.065664996623   110.33970603    61.53748271
 H    102  93  92     1.920360677748   115.97122839   330.91543344
 N    104 103 102     2.532235755748   119.99933728   180.00025990
 C    119 104 103     2.733977658301   119.99942300   179.99025951
 C    120 119 104     2.882616947218   109.99075434   180.00007683
 O    121 120 119     2.321624409575   123.57084771     0.00000000
 H    120 119 104     2.069792879130   108.75312724   300.24263963
 H    120 119 104     2.066779149785   108.82877678    59.61766112
 H    119 104 103     1.920079920480   122.30513698     0.15866410
 N    121 120 119     2.532229154962   120.00000562   180.00040905
 C    126 121 120     2.767015255389   119.99993422   179.99034499
 C    127 126 121     2.912821659616   105.98560107   179.99963980
 O    128 127 126     2.324999407781   122.91931113     0.00000000
 C    127 126 121     2.887679693805   111.19101405    59.38399965
 C    130 127 126     2.836835877851   111.33845801   198.32963173
 O    131 130 127     2.306873894662   127.17060617   352.12420543
 O    131 130 127     2.544804096329   112.07126200   174.51868626
 H    127 126 121     2.072433096988   107.62856198   296.34872192
 H    130 127 126     2.071025743712   110.92908080    77.28678323
 H    130 127 126     2.071469125951   110.28689865   317.13073243
 H    126 121 120     1.923074758649   121.56896949   346.72503670
 O    128 127 126     2.553014494195   116.74209234   179.99983157

---------------------
BASIS SET INFORMATION
---------------------
There are 5 groups of distinct atoms

 Group   1 Type N   : 6s3p contracted to 2s1p pattern {33/3}
 Group   2 Type C   : 6s3p contracted to 2s1p pattern {33/3}
 Group   3 Type O   : 6s3p contracted to 2s1p pattern {33/3}
 Group   4 Type H   : 3s contracted to 1s pattern {3}
 Group   5 Type S   : 9s6p1d contracted to 3s2p1d pattern {333/33/1}

Atom   0N    basis set group =>   1
Atom   1C    basis set group =>   2
Atom   2C    basis set group =>   2
Atom   3O    basis set group =>   3
Atom   4C    basis set group =>   2
Atom   5H    basis set group =>   4
Atom   6H    basis set group =>   4
Atom   7C    basis set group =>   2
Atom   8N    basis set group =>   1
Atom   9C    basis set group =>   2
Atom  10H    basis set group =>   4
Atom  11N    basis set group =>   1
Atom  12C    basis set group =>   2
Atom  13H    basis set group =>   4
Atom  14H    basis set group =>   4
Atom  15H    basis set group =>   4
Atom  16H    basis set group =>   4
Atom  17H    basis set group =>   4
Atom  18H    basis set group =>   4
Atom  19N    basis set group =>   1
Atom  20C    basis set group =>   2
Atom  21C    basis set group =>   2
Atom  22O    basis set group =>   3
Atom  23C    basis set group =>   2
Atom  24C    basis set group =>   2
Atom  25C    basis set group =>   2
Atom  26C    basis set group =>   2
Atom  27N    basis set group =>   1
Atom  28H    basis set group =>   4
Atom  29H    basis set group =>   4
Atom  30H    basis set group =>   4
Atom  31H    basis set group =>   4
Atom  32H    basis set group =>   4
Atom  33H    basis set group =>   4
Atom  34H    basis set group =>   4
Atom  35H    basis set group =>   4
Atom  36H    basis set group =>   4
Atom  37H    basis set group =>   4
Atom  38H    basis set group =>   4
Atom  39H    basis set group =>   4
Atom  40H    basis set group =>   4
Atom  41N    basis set group =>   1
Atom  42C    basis set group =>   2
Atom  43C    basis set group =>   2
Atom  44O    basis set group =>   3
Atom  45H    basis set group =>   4
Atom  46C    basis set group =>   2
Atom  47H    basis set group =>   4
Atom  48H    basis set group =>   4
Atom  49O    basis set group =>   3
Atom  50H    basis set group =>   4
Atom  51H    basis set group =>   4
Atom  52N    basis set group =>   1
Atom  53C    basis set group =>   2
Atom  54C    basis set group =>   2
Atom  55O    basis set group =>   3
Atom  56C    basis set group =>   2
Atom  57H    basis set group =>   4
Atom  58H    basis set group =>   4
Atom  59C    basis set group =>   2
Atom  60C    basis set group =>   2
Atom  61H    basis set group =>   4
Atom  62C    basis set group =>   2
Atom  63H    basis set group =>   4
Atom  64C    basis set group =>   2
Atom  65C    basis set group =>   2
Atom  66H    basis set group =>   4
Atom  67C    basis set group =>   2
Atom  68H    basis set group =>   4
Atom  69O    basis set group =>   3
Atom  70H    basis set group =>   4
Atom  71H    basis set group =>   4
Atom  72H    basis set group =>   4
Atom  73N    basis set group =>   1
Atom  74C    basis set group =>   2
Atom  75C    basis set group =>   2
Atom  76O    basis set group =>   3
Atom  77C    basis set group =>   2
Atom  78C    basis set group =>   2
Atom  79S    basis set group =>   5
Atom  80C    basis set group =>   2
Atom  81H    basis set group =>   4
Atom  82H    basis set group =>   4
Atom  83H    basis set group =>   4
Atom  84H    basis set group =>   4
Atom  85H    basis set group =>   4
Atom  86H    basis set group =>   4
Atom  87H    basis set group =>   4
Atom  88H    basis set group =>   4
Atom  89H    basis set group =>   4
Atom  90N    basis set group =>   1
Atom  91C    basis set group =>   2
Atom  92C    basis set group =>   2
Atom  93O    basis set group =>   3
Atom  94H    basis set group =>   4
Atom  95C    basis set group =>   2
Atom  96H    basis set group =>   4
Atom  97H    basis set group =>   4
Atom  98O    basis set group =>   3
Atom  99H    basis set group =>   4
Atom 100H    basis set group =>   4
Atom 101N    basis set group =>   1
Atom 102C    basis set group =>   2
Atom 103C    basis set group =>   2
Atom 104O    basis set group =>   3
Atom 105C    basis set group =>   2
Atom 106C    basis set group =>   2
Atom 107S    basis set group =>   5
Atom 108C    basis set group =>   2
Atom 109H    basis set group =>   4
Atom 110H    basis set group =>   4
Atom 111H    basis set group =>   4
Atom 112H    basis set group =>   4
Atom 113H    basis set group =>   4
Atom 114H    basis set group =>   4
Atom 115H    basis set group =>   4
Atom 116H    basis set group =>   4
Atom 117H    basis set group =>   4
Atom 118N    basis set group =>   1
Atom 119C    basis set group =>   2
Atom 120C    basis set group =>   2
Atom 121O    basis set group =>   3
Atom 122H    basis set group =>   4
Atom 123H    basis set group =>   4
Atom 124H    basis set group =>   4
Atom 125N    basis set group =>   1
Atom 126C    basis set group =>   2
Atom 127C    basis set group =>   2
Atom 128O    basis set group =>   3
Atom 129C    basis set group =>   2
Atom 130C    basis set group =>   2
Atom 131O    basis set group =>   3
Atom 132O    basis set group =>   3
Atom 133H    basis set group =>   4
Atom 134H    basis set group =>   4
Atom 135H    basis set group =>   4
Atom 136H    basis set group =>   4
Atom 137O    basis set group =>   3
--------------------------------------------------------------------------
WARNING: No preset parameters were found for the device that Open MPI
detected:

  Local host:            c0703a-s21
  Device name:           mlx5_0
  Device vendor ID:      0x02c9
  Device vendor part ID: 4123

Default device parameters will be used, which may result in lower
performance.  You can edit any of the files specified by the
btl_openib_device_param_files MCA parameter to set values for your
device.

NOTE: You can turn off this warning by setting the MCA parameter
      btl_openib_warn_no_device_params_found to 0.
--------------------------------------------------------------------------
--------------------------------------------------------------------------
WARNING: There was an error initializing an OpenFabrics device.

  Local host:   c0703a-s21
  Local device: mlx5_0
--------------------------------------------------------------------------


           ************************************************************
           *        Program running with 15 parallel MPI-processes    *
           *              working on a common directory               *
           ************************************************************
------------------------------------------------------------------------------
                           ORCA GTO INTEGRAL CALCULATION
------------------------------------------------------------------------------

                         BASIS SET STATISTICS AND STARTUP INFO

 # of primitive gaussian shells          ...  860
 # of primitive gaussian functions       ... 1312
 # of contracted shells                  ...  288
 # of contracted basis functions         ...  444
 Highest angular momentum                ...    2
 Maximum contraction depth               ...    3
 Integral package used                   ... LIBINT
 Integral threshhold            Thresh   ...  1.000e-10
 Primitive cut-off              TCut     ...  1.000e-11


------------------------------ INTEGRAL EVALUATION ----------------------------


 * One electron integrals 
 Pre-screening matrix                    ... done
 Shell pair data                         ... done (   0.007 sec)

[c0703a-s21.ufhpc:83231] 14 more processes have sent help message help-mpi-btl-openib.txt / no device params found
[c0703a-s21.ufhpc:83231] Set MCA parameter "orte_base_help_aggregate" to 0 to see all help / error messages
[c0703a-s21.ufhpc:83231] 14 more processes have sent help message help-mpi-btl-openib.txt / error in device init
--------------------------------------------------------------------------
WARNING: No preset parameters were found for the device that Open MPI
detected:

  Local host:            c0703a-s21
  Device name:           mlx5_0
  Device vendor ID:      0x02c9
  Device vendor part ID: 4123

Default device parameters will be used, which may result in lower
performance.  You can edit any of the files specified by the
btl_openib_device_param_files MCA parameter to set values for your
device.

NOTE: You can turn off this warning by setting the MCA parameter
      btl_openib_warn_no_device_params_found to 0.
--------------------------------------------------------------------------
--------------------------------------------------------------------------
WARNING: There was an error initializing an OpenFabrics device.

  Local host:   c0703a-s21
  Local device: mlx5_0
--------------------------------------------------------------------------


           ************************************************************
           *        Program running with 15 parallel MPI-processes    *
           *              working on a common directory               *
           ************************************************************
-------------------------------------------------------------------------------
                                 ORCA SCF
-------------------------------------------------------------------------------

------------
SCF SETTINGS
------------
Hamiltonian:
 Ab initio Hamiltonian  Method          .... Hartree-Fock(GTOs)


General Settings:
 Integral files         IntName         .... HKSYMSMGD
 Hartree-Fock type      HFTyp           .... RHF
 Total Charge           Charge          ....    0
 Multiplicity           Mult            ....    1
 Number of Electrons    NEL             ....  560
 Basis Dimension        Dim             ....  444
 Nuclear Repulsion      ENuc            ....  11087.3061510003 Eh

Convergence Acceleration:
 DIIS                   CNVDIIS         .... off
 Newton-Raphson         CNVNR           .... off
 SOSCF                  CNVSOSCF        .... off
 Level Shifting         CNVShift        .... off
 Zerner damping         CNVZerner       .... off
 Static damping         CNVDamp         .... off
 Fernandez-Rico         CNVRico         .... off

SCF Procedure:
 Maximum # iterations   MaxIter         .... 10000
 SCF integral mode      SCFMode         .... Direct
   Integral package                     .... LIBINT
 Reset frequency        DirectResetFreq ....    20
 Integral Threshold     Thresh          ....  1.000e-10 Eh
 Primitive CutOff       TCut            ....  1.000e-11 Eh

Convergence Tolerance:
 Convergence Check Mode ConvCheckMode   .... All-Criteria
 Convergence forced     ConvForced      .... 0
 Energy Change          TolE            ....  1.000e-06 Eh
 Max Density Change     TolMaxP         ....  1.000e-05
 RMS Density Change     TolRMSP         ....  1.000e-06


Diagonalization of the overlap matrix:
Smallest eigenvalue                        ... 1.716e-01
Time for diagonalization                   ...    0.068 sec
Threshold for overlap eigenvalues          ... 1.000e-08
Number of eigenvalues below threshold      ... 0
Time for construction of square roots      ...    0.071 sec
Total time needed                          ...    0.139 sec

--------------------------------
INITIAL GUESS: MINIMAL BASIS EHT
--------------------------------
The minimal basis has 434 functions
EHT matrix was diagonalized
Basis set overlap was calculated now projecting the orbitals
Using GuessMode=FMatrix for the initial guess
C*T matrix was formed
Effective Fockian was calculated
Effective Fockian was diagonalized
Initial density was built
                      ------------------
                      INITIAL GUESS DONE
                      ------------------

--------------------
CPCM SOLVATION MODEL
--------------------
CPCM parameters:
  Epsilon                                         ...      78.3550
  Refrac                                          ...       1.3300
  Rsolv                                           ...       1.3000
  Surface type                                    ...    GEPOL SES
  Epsilon function type                           ...         CPCM
Solvent:                                     ... WATER
SMD-CDS solvent descriptors:
  Soln                                       ...    1.3328
  Soln25                                     ...    1.3323
  Sola                                       ...    0.0000
  Solb                                       ...    0.0000
  Solg                                       ...    0.0000
  Solc                                       ...    0.0000
  Solh                                       ...    0.0000
Radii:
 Radius for N  used is    3.5716 Bohr (=   1.8900 Ang.)
 Radius for C  used is    3.4960 Bohr (=   1.8500 Ang.)
 Radius for O  used is    2.8724 Bohr (=   1.5200 Ang.)
 Radius for H  used is    2.2677 Bohr (=   1.2000 Ang.)
 Radius for S  used is    4.7054 Bohr (=   2.4900 Ang.)
Calculating surface                               ...        done! (  0.6s)
GEPOL surface points                              ...         6697
GEPOL Volume                                      ...    7344.0234
GEPOL Surface-area                                ...    3701.2291
Calculating surface distance matrix               ...        done! (  0.4s)
Performing Cholesky decomposition & store         ...        [c0703a-s21.ufhpc:83669] 14 more processes have sent help message help-mpi-btl-openib.txt / no device params found
[c0703a-s21.ufhpc:83669] Set MCA parameter "orte_base_help_aggregate" to 0 to see all help / error messages
[c0703a-s21.ufhpc:83669] 14 more processes have sent help message help-mpi-btl-openib.txt / error in device init
done! (  4.1s)
Overall time for CPCM initialization              ...                 5.2s
--------------
SCF ITERATIONS
--------------
ITER       Energy         Delta-E        Max-DP      RMS-DP      [F,P]   Gradient Norm
               ***  Starting incremental Fock matrix formation  ***
                             ****Resetting KDIIS****
                             ****Turning on KDIIS(Cayley)****
  0  -4205.0231636252   0.000000000000 0.06022721  0.00122245  0.7670195   0.197380658
  1  -4206.1610073570  -1.137843731827 0.08604541  0.00169852  0.6939680   0.177450597
  2  -4207.5733146023  -1.412307245296 0.16418264  0.00306690  0.5589366   0.143598496
  3  -4209.3530988868  -1.779784284457 0.25460817  0.00485106  0.3374595   0.086915843
  4  -4210.3923354040  -1.039236517223 0.01778173  0.00034473  0.0054302   0.003220202
  5  -4210.3973979205  -0.005062516469 0.01287051  0.00023322  0.0026506   0.001371692
  6  -4210.3986792941  -0.001281373639 0.00342083  0.00004961  0.0007405   0.000478726
  7  -4210.3987932478  -0.000113953685 0.00238060  0.00003914  0.0004452   0.000239790
  8  -4210.3988334150  -0.000040167236 0.00093665  0.00001043  0.0001558   0.000052993
  9  -4210.3988361057  -0.000002690654 0.00033107  0.00000355  0.0000805   0.000023797
                          ***Energy convergence achieved***
 10  -4210.3988365834  -0.000000477688 0.00031533  0.00000302  0.0000295   0.000012488
                           ***RMSP convergence achieved***

            ***Energy convergence in two consecutive cycles with***
                    ***'reasonable' density convergence***
                       *** signaling convergence ***

                    *** KDIIS BlockDiag (59.663 sec) ***

               *****************************************************
               *                     SUCCESS                       *
               *           SCF CONVERGED AFTER  11 CYCLES          *
               *****************************************************


SMD CDS free energy correction energy :                22.12706     Kcal/mol
Total Energy after SMD CDS correction =             -4210.363575081 Eh

----------------
TOTAL SCF ENERGY
----------------

Total Energy       :        -4210.36357508 Eh         -114569.81749 eV

Components:
Nuclear Repulsion  :        11087.30615100 Eh          301700.93855 eV
Electronic Energy  :       -15297.66972608 Eh         -416270.75604 eV
One Electron Energy:       -27880.35616629 Eh         -758663.06097 eV
Two Electron Energy:        12582.68644021 Eh          342392.30493 eV
CPCM Dielectric    :           -0.71498518 Eh             -19.45574 eV
SMD CDS (Gcds)     :            0.03526171 Eh               0.95952 eV

Virial components:
Potential Energy   :        -8421.98987134 Eh         -229173.99538 eV
Kinetic Energy     :         4211.62629626 Eh          114604.17789 eV
Virial Ratio       :            1.99970018

CPCM Solvation Model Properties:
Surface-charge          :           -0.04067575
Charge-correction       :           -0.00032806 Eh              -0.00893 eV
Free-energy (cav+disp)  :            0.01327703 Eh               0.36129 eV
Corrected G(solv)       :        -4210.35062611 Eh         -114569.46514 eV

---------------
SCF CONVERGENCE
---------------

  Last Energy change         ...   -2.1058e-07  Tolerance :   1.0000e-06
  Last MAX-Density change    ...    6.7010e-05  Tolerance :   1.0000e-05
  Last RMS-Density change    ...    7.5332e-07  Tolerance :   1.0000e-06

             **** THE GBW FILE WAS UPDATED (HKSYMSMGD.gbw) ****
             **** DENSITY FILE WAS UPDATED (HKSYMSMGD.scfp) ****
             **** ENERGY FILE WAS UPDATED (HKSYMSMGD.en.tmp) ****
             **** THE GBW FILE WAS UPDATED (HKSYMSMGD.gbw) ****
             **** DENSITY FILE WAS UPDATED (HKSYMSMGD.scfp) ****
----------------
ORBITAL ENERGIES
----------------

  NO   OCC          E(Eh)            E(eV) 
   0   2.0000     -91.263103     -2483.3953 
   1   2.0000     -91.262342     -2483.3746 
   2   2.0000     -20.348725      -553.7170 
   3   2.0000     -20.305073      -552.5291 
   4   2.0000     -20.296229      -552.2885 
   5   2.0000     -20.294132      -552.2314 
   6   2.0000     -20.275114      -551.7139 
   7   2.0000     -20.274620      -551.7005 
   8   2.0000     -20.273797      -551.6781 
   9   2.0000     -20.271242      -551.6085 
  10   2.0000     -20.270529      -551.5891 
  11   2.0000     -20.266151      -551.4700 
  12   2.0000     -20.249709      -551.0226 
  13   2.0000     -20.141312      -548.0730 
  14   2.0000     -20.132386      -547.8301 
  15   2.0000     -20.039467      -545.3016 
  16   2.0000     -20.012630      -544.5714 
  17   2.0000     -15.629411      -425.2979 
  18   2.0000     -15.615124      -424.9091 
  19   2.0000     -15.504095      -421.8879 
  20   2.0000     -15.451148      -420.4471 
  21   2.0000     -15.442610      -420.2148 
  22   2.0000     -15.438063      -420.0911 
  23   2.0000     -15.436324      -420.0437 
  24   2.0000     -15.435041      -420.0088 
  25   2.0000     -15.434399      -419.9914 
  26   2.0000     -15.434133      -419.9841 
  27   2.0000     -15.407228      -419.2520 
  28   2.0000     -15.389944      -418.7817 
  29   2.0000     -11.364930      -309.2555 
  30   2.0000     -11.339234      -308.5562 
  31   2.0000     -11.333061      -308.3883 
  32   2.0000     -11.332511      -308.3733 
  33   2.0000     -11.332242      -308.3660 
  34   2.0000     -11.332165      -308.3639 
  35   2.0000     -11.331150      -308.3363 
  36   2.0000     -11.320861      -308.0563 
  37   2.0000     -11.299390      -307.4720 
  38   2.0000     -11.259602      -306.3893 
  39   2.0000     -11.257367      -306.3285 
  40   2.0000     -11.248781      -306.0949 
  41   2.0000     -11.247123      -306.0498 
  42   2.0000     -11.245123      -305.9954 
  43   2.0000     -11.242767      -305.9313 
  44   2.0000     -11.242578      -305.9261 
  45   2.0000     -11.241917      -305.9081 
  46   2.0000     -11.236166      -305.7516 
  47   2.0000     -11.230789      -305.6053 
  48   2.0000     -11.228042      -305.5306 
  49   2.0000     -11.225850      -305.4709 
  50   2.0000     -11.224028      -305.4213 
  51   2.0000     -11.222193      -305.3714 
  52   2.0000     -11.221553      -305.3540 
  53   2.0000     -11.220026      -305.3124 
  54   2.0000     -11.183893      -304.3292 
  55   2.0000     -11.183748      -304.3253 
  56   2.0000     -11.183194      -304.3102 
  57   2.0000     -11.181563      -304.2658 
  58   2.0000     -11.178443      -304.1809 
  59   2.0000     -11.177163      -304.1461 
  60   2.0000     -11.175959      -304.1133 
  61   2.0000     -11.174529      -304.0744 
  62   2.0000     -11.170705      -303.9703 
  63   2.0000     -11.169947      -303.9497 
  64   2.0000     -11.169765      -303.9447 
  65   2.0000     -11.169396      -303.9347 
  66   2.0000     -11.169061      -303.9256 
  67   2.0000     -11.168742      -303.9169 
  68   2.0000     -11.168514      -303.9107 
  69   2.0000     -11.167571      -303.8851 
  70   2.0000     -11.165177      -303.8199 
  71   2.0000     -11.124518      -302.7135 
  72   2.0000      -8.882115      -241.6946 
  73   2.0000      -8.881333      -241.6734 
  74   2.0000      -6.531563      -177.7329 
  75   2.0000      -6.530783      -177.7116 
  76   2.0000      -6.529790      -177.6846 
  77   2.0000      -6.529009      -177.6634 
  78   2.0000      -6.527039      -177.6097 
  79   2.0000      -6.526256      -177.5885 
  80   2.0000      -1.427738       -38.8507 
  81   2.0000      -1.405598       -38.2483 
  82   2.0000      -1.403923       -38.2027 
  83   2.0000      -1.400441       -38.1079 
  84   2.0000      -1.394435       -37.9445 
  85   2.0000      -1.391825       -37.8735 
  86   2.0000      -1.388819       -37.7917 
  87   2.0000      -1.386922       -37.7401 
  88   2.0000      -1.380207       -37.5573 
  89   2.0000      -1.374916       -37.4134 
  90   2.0000      -1.358802       -36.9749 
  91   2.0000      -1.344325       -36.5809 
  92   2.0000      -1.335709       -36.3465 
  93   2.0000      -1.333475       -36.2857 
  94   2.0000      -1.311718       -35.6936 
  95   2.0000      -1.300853       -35.3980 
  96   2.0000      -1.243139       -33.8275 
  97   2.0000      -1.229876       -33.4666 
  98   2.0000      -1.228827       -33.4381 
  99   2.0000      -1.228041       -33.4167 
 100   2.0000      -1.224202       -33.3122 
 101   2.0000      -1.223503       -33.2932 
 102   2.0000      -1.221480       -33.2382 
 103   2.0000      -1.196504       -32.5585 
 104   2.0000      -1.176324       -32.0094 
 105   2.0000      -1.162556       -31.6347 
 106   2.0000      -1.140732       -31.0409 
 107   2.0000      -1.135203       -30.8905 
 108   2.0000      -1.123073       -30.5604 
 109   2.0000      -1.107406       -30.1340 
 110   2.0000      -1.102531       -30.0014 
 111   2.0000      -1.096589       -29.8397 
 112   2.0000      -1.075649       -29.2699 
 113   2.0000      -1.060848       -28.8671 
 114   2.0000      -1.050663       -28.5900 
 115   2.0000      -1.035908       -28.1885 
 116   2.0000      -1.031220       -28.0609 
 117   2.0000      -1.024998       -27.8916 
 118   2.0000      -1.024030       -27.8653 
 119   2.0000      -1.019853       -27.7516 
 120   2.0000      -1.011758       -27.5313 
 121   2.0000      -0.991298       -26.9746 
 122   2.0000      -0.980522       -26.6814 
 123   2.0000      -0.969244       -26.3745 
 124   2.0000      -0.955304       -25.9951 
 125   2.0000      -0.945924       -25.7399 
 126   2.0000      -0.937273       -25.5045 
 127   2.0000      -0.901630       -24.5346 
 128   2.0000      -0.892598       -24.2888 
 129   2.0000      -0.883737       -24.0477 
 130   2.0000      -0.877559       -23.8796 
 131   2.0000      -0.875475       -23.8229 
 132   2.0000      -0.862134       -23.4599 
 133   2.0000      -0.854322       -23.2473 
 134   2.0000      -0.851079       -23.1590 
 135   2.0000      -0.844726       -22.9862 
 136   2.0000      -0.842115       -22.9151 
 137   2.0000      -0.817446       -22.2438 
 138   2.0000      -0.813115       -22.1260 
 139   2.0000      -0.801522       -21.8105 
 140   2.0000      -0.799530       -21.7563 
 141   2.0000      -0.799201       -21.7474 
 142   2.0000      -0.798076       -21.7168 
 143   2.0000      -0.795310       -21.6415 
 144   2.0000      -0.792631       -21.5686 
 145   2.0000      -0.786910       -21.4129 
 146   2.0000      -0.782432       -21.2911 
 147   2.0000      -0.777423       -21.1548 
 148   2.0000      -0.773886       -21.0585 
 149   2.0000      -0.771000       -20.9800 
 150   2.0000      -0.769215       -20.9314 
 151   2.0000      -0.766881       -20.8679 
 152   2.0000      -0.761706       -20.7271 
 153   2.0000      -0.754994       -20.5444 
 154   2.0000      -0.751338       -20.4449 
 155   2.0000      -0.738693       -20.1008 
 156   2.0000      -0.720671       -19.6104 
 157   2.0000      -0.713582       -19.4175 
 158   2.0000      -0.705776       -19.2051 
 159   2.0000      -0.697041       -18.9674 
 160   2.0000      -0.695746       -18.9322 
 161   2.0000      -0.692197       -18.8356 
 162   2.0000      -0.688112       -18.7245 
 163   2.0000      -0.683994       -18.6124 
 164   2.0000      -0.679679       -18.4950 
 165   2.0000      -0.677160       -18.4265 
 166   2.0000      -0.673729       -18.3331 
 167   2.0000      -0.672271       -18.2934 
 168   2.0000      -0.668121       -18.1805 
 169   2.0000      -0.660625       -17.9765 
 170   2.0000      -0.660055       -17.9610 
 171   2.0000      -0.654784       -17.8176 
 172   2.0000      -0.650229       -17.6936 
 173   2.0000      -0.648475       -17.6459 
 174   2.0000      -0.646728       -17.5984 
 175   2.0000      -0.642062       -17.4714 
 176   2.0000      -0.641734       -17.4625 
 177   2.0000      -0.636732       -17.3264 
 178   2.0000      -0.634752       -17.2725 
 179   2.0000      -0.632666       -17.2157 
 180   2.0000      -0.629214       -17.1218 
 181   2.0000      -0.628402       -17.0997 
 182   2.0000      -0.622629       -16.9426 
 183   2.0000      -0.620038       -16.8721 
 184   2.0000      -0.619270       -16.8512 
 185   2.0000      -0.614850       -16.7309 
 186   2.0000      -0.614470       -16.7206 
 187   2.0000      -0.613380       -16.6909 
 188   2.0000      -0.607775       -16.5384 
 189   2.0000      -0.606610       -16.5067 
 190   2.0000      -0.602588       -16.3973 
 191   2.0000      -0.598372       -16.2825 
 192   2.0000      -0.593134       -16.1400 
 193   2.0000      -0.592185       -16.1142 
 194   2.0000      -0.590060       -16.0563 
 195   2.0000      -0.589308       -16.0359 
 196   2.0000      -0.587503       -15.9868 
 197   2.0000      -0.585451       -15.9309 
 198   2.0000      -0.582339       -15.8463 
 199   2.0000      -0.582180       -15.8419 
 200   2.0000      -0.581068       -15.8117 
 201   2.0000      -0.578848       -15.7513 
 202   2.0000      -0.578055       -15.7297 
 203   2.0000      -0.575005       -15.6467 
 204   2.0000      -0.574214       -15.6252 
 205   2.0000      -0.572163       -15.5693 
 206   2.0000      -0.571135       -15.5414 
 207   2.0000      -0.564332       -15.3562 
 208   2.0000      -0.562992       -15.3198 
 209   2.0000      -0.558843       -15.2069 
 210   2.0000      -0.556819       -15.1518 
 211   2.0000      -0.556243       -15.1361 
 212   2.0000      -0.554733       -15.0951 
 213   2.0000      -0.552040       -15.0218 
 214   2.0000      -0.549356       -14.9487 
 215   2.0000      -0.545242       -14.8368 
 216   2.0000      -0.544222       -14.8090 
 217   2.0000      -0.541204       -14.7269 
 218   2.0000      -0.538390       -14.6503 
 219   2.0000      -0.532874       -14.5002 
 220   2.0000      -0.531424       -14.4608 
 221   2.0000      -0.529426       -14.4064 
 222   2.0000      -0.528835       -14.3903 
 223   2.0000      -0.527814       -14.3625 
 224   2.0000      -0.523131       -14.2351 
 225   2.0000      -0.515492       -14.0272 
 226   2.0000      -0.515030       -14.0147 
 227   2.0000      -0.511787       -13.9264 
 228   2.0000      -0.507619       -13.8130 
 229   2.0000      -0.500360       -13.6155 
 230   2.0000      -0.497980       -13.5507 
 231   2.0000      -0.496344       -13.5062 
 232   2.0000      -0.492046       -13.3893 
 233   2.0000      -0.491978       -13.3874 
 234   2.0000      -0.488833       -13.3018 
 235   2.0000      -0.486873       -13.2485 
 236   2.0000      -0.485090       -13.2000 
 237   2.0000      -0.480772       -13.0825 
 238   2.0000      -0.479362       -13.0441 
 239   2.0000      -0.478771       -13.0280 
 240   2.0000      -0.475060       -12.9270 
 241   2.0000      -0.472928       -12.8690 
 242   2.0000      -0.470618       -12.8062 
 243   2.0000      -0.468448       -12.7471 
 244   2.0000      -0.467498       -12.7213 
 245   2.0000      -0.449772       -12.2389 
 246   2.0000      -0.446267       -12.1435 
 247   2.0000      -0.435452       -11.8493 
 248   2.0000      -0.432091       -11.7578 
 249   2.0000      -0.430729       -11.7207 
 250   2.0000      -0.422831       -11.5058 
 251   2.0000      -0.421975       -11.4825 
 252   2.0000      -0.419662       -11.4196 
 253   2.0000      -0.407536       -11.0896 
 254   2.0000      -0.406010       -11.0481 
 255   2.0000      -0.404089       -10.9958 
 256   2.0000      -0.403884       -10.9902 
 257   2.0000      -0.402551       -10.9540 
 258   2.0000      -0.398855       -10.8534 
 259   2.0000      -0.395405       -10.7595 
 260   2.0000      -0.390445       -10.6246 
 261   2.0000      -0.385112       -10.4794 
 262   2.0000      -0.378631       -10.3031 
 263   2.0000      -0.375655       -10.2221 
 264   2.0000      -0.373987       -10.1767 
 265   2.0000      -0.372721       -10.1423 
 266   2.0000      -0.369339       -10.0502 
 267   2.0000      -0.367687       -10.0053 
 268   2.0000      -0.354719        -9.6524 
 269   2.0000      -0.353483        -9.6187 
 270   2.0000      -0.331741        -9.0271 
 271   2.0000      -0.326887        -8.8950 
 272   2.0000      -0.326010        -8.8712 
[...]
  4 C      6.2571     6.0000    -0.2571     3.9288     3.9288    -0.0000
  5 H      0.8148     1.0000     0.1852     0.9657     0.9657    -0.0000
  6 H      0.8250     1.0000     0.1750     0.9694     0.9694    -0.0000
  7 C      5.9231     6.0000     0.0769     3.9392     3.9392    -0.0000
  8 N      7.3764     7.0000    -0.3764     3.4128     3.4128    -0.0000
  9 C      5.9216     6.0000     0.0784     3.9012     3.9012    -0.0000
 10 H      0.8245     1.0000     0.1755     0.9692     0.9692    -0.0000
 11 N      7.3423     7.0000    -0.3423     3.0102     3.0102    -0.0000
 12 C      6.0957     6.0000    -0.0957     3.9403     3.9403     0.0000
 13 H      0.8515     1.0000     0.1485     0.9779     0.9779     0.0000
 14 H      0.6774     1.0000     0.3226     0.8960     0.8960     0.0000
 15 H      0.5758     1.0000     0.4242     0.8201     0.8201     0.0000
 16 H      0.7841     1.0000     0.2159     0.9534     0.9534    -0.0000
 17 H      0.5817     1.0000     0.4183     0.8250     0.8250     0.0000
 18 H      0.6059     1.0000     0.3941     0.8447     0.8447    -0.0000
 19 N      7.4085     7.0000    -0.4085     3.2238     3.2238    -0.0000
 20 C      6.0218     6.0000    -0.0218     3.9248     3.9248     0.0000
 21 C      5.5944     6.0000     0.4056     3.9089     3.9089     0.0000
 22 O      8.4919     8.0000    -0.4919     1.9921     1.9921    -0.0000
 23 C      6.2437     6.0000    -0.2437     3.9465     3.9465    -0.0000
 24 C      6.2436     6.0000    -0.2436     3.9593     3.9593    -0.0000
 25 C      6.2438     6.0000    -0.2438     3.9482     3.9482     0.0000
 26 C      6.1221     6.0000    -0.1221     3.8153     3.8153    -0.0000
 27 N      7.4967     7.0000    -0.4967     3.4207     3.4207    -0.0000
 28 H      0.8243     1.0000     0.1757     0.9691     0.9691     0.0000
 29 H      0.8627     1.0000     0.1373     0.9812     0.9812    -0.0000
 30 H      0.8384     1.0000     0.1616     0.9739     0.9739     0.0000
 31 H      0.8618     1.0000     0.1382     0.9809     0.9809    -0.0000
 32 H      0.8694     1.0000     0.1306     0.9829     0.9829    -0.0000
 33 H      0.8524     1.0000     0.1476     0.9782     0.9782    -0.0000
 34 H      0.8523     1.0000     0.1477     0.9782     0.9782     0.0000
 35 H      0.8138     1.0000     0.1862     0.9653     0.9653    -0.0000
 36 H      0.8141     1.0000     0.1859     0.9654     0.9654    -0.0000
 37 H      0.6074     1.0000     0.3926     0.8459     0.8459     0.0000
 38 H      0.6120     1.0000     0.3880     0.8494     0.8494     0.0000
 39 H      0.6095     1.0000     0.3905     0.8475     0.8475    -0.0000
 40 H      0.7005     1.0000     0.2995     0.9103     0.9103    -0.0000
 41 N      7.4092     7.0000    -0.4092     3.2368     3.2368    -0.0000
 42 C      6.0211     6.0000    -0.0211     3.9281     3.9281     0.0000
 43 C      5.5949     6.0000     0.4051     3.9120     3.9120    -0.0000
 44 O      8.4887     8.0000    -0.4887     1.9935     1.9935    -0.0000
 45 H      0.8217     1.0000     0.1783     0.9682     0.9682     0.0000
 46 C      6.0587     6.0000    -0.0587     3.8736     3.8736     0.0000
 47 H      0.8377     1.0000     0.1623     0.9737     0.9737     0.0000
 48 H      0.8590     1.0000     0.1410     0.9801     0.9801     0.0000
 49 O      8.5382     8.0000    -0.5382     1.8730     1.8730    -0.0000
 50 H      0.6708     1.0000     0.3292     0.8917     0.8917     0.0000
 51 H      0.7060     1.0000     0.2940     0.9136     0.9136    -0.0000
 52 N      7.4087     7.0000    -0.4087     3.2329     3.2329    -0.0000
 53 C      6.0133     6.0000    -0.0133     3.9268     3.9268     0.0000
 54 C      5.5957     6.0000     0.4043     3.9089     3.9089    -0.0000
 55 O      8.4866     8.0000    -0.4866     1.9929     1.9929    -0.0000
 56 C      6.2388     6.0000    -0.2388     3.9479     3.9479     0.0000
 57 H      0.8359     1.0000     0.1641     0.9731     0.9731    -0.0000
 58 H      0.8586     1.0000     0.1414     0.9800     0.9800     0.0000
 59 C      6.0382     6.0000    -0.0382     3.9969     3.9969     0.0000
 60 C      6.1263     6.0000    -0.1263     3.9752     3.9752     0.0000
 61 H      0.8466     1.0000     0.1534     0.9765     0.9765    -0.0000
 62 C      6.1648     6.0000    -0.1648     3.9729     3.9729    -0.0000
 63 H      0.8451     1.0000     0.1549     0.9760     0.9760    -0.0000
 64 C      5.8289     6.0000     0.1711     3.9252     3.9252    -0.0000
 65 C      6.1804     6.0000    -0.1804     3.9718     3.9718    -0.0000
 66 H      0.8463     1.0000     0.1537     0.9764     0.9764    -0.0000
 67 C      6.1331     6.0000    -0.1331     3.9758     3.9758    -0.0000
 68 H      0.8474     1.0000     0.1526     0.9767     0.9767    -0.0000
 69 O      8.5188     8.0000    -0.5188     1.9755     1.9755    -0.0000
 70 H      0.6441     1.0000     0.3559     0.8733     0.8733    -0.0000
 71 H      0.8273     1.0000     0.1727     0.9702     0.9702     0.0000
 72 H      0.7045     1.0000     0.2955     0.9127     0.9127    -0.0000
 73 N      7.4080     7.0000    -0.4080     3.2180     3.2180     0.0000
 74 C      6.0178     6.0000    -0.0178     3.9271     3.9271     0.0000
 75 C      5.5964     6.0000     0.4036     3.9108     3.9108     0.0000
 76 O      8.4813     8.0000    -0.4813     1.9972     1.9972    -0.0000
 77 C      6.2418     6.0000    -0.2418     3.9441     3.9441     0.0000
 78 C      6.2585     6.0000    -0.2585     3.9467     3.9467    -0.0000
 79 S     16.0903    16.0000    -0.0903     2.0831     2.0831     0.0000
 80 C      6.3955     6.0000    -0.3955     3.9235     3.9235    -0.0000
 81 H      0.8244     1.0000     0.1756     0.9692     0.9692     0.0000
 82 H      0.8592     1.0000     0.1408     0.9802     0.9802    -0.0000
 83 H      0.8352     1.0000     0.1648     0.9728     0.9728     0.0000
 84 H      0.8508     1.0000     0.1492     0.9777     0.9777    -0.0000
 85 H      0.8670     1.0000     0.1330     0.9823     0.9823    -0.0000
 86 H      0.8539     1.0000     0.1461     0.9786     0.9786    -0.0000
 87 H      0.8485     1.0000     0.1515     0.9770     0.9770    -0.0000
 88 H      0.8536     1.0000     0.1464     0.9786     0.9786    -0.0000
 89 H      0.7110     1.0000     0.2890     0.9165     0.9165     0.0000
 90 N      7.4108     7.0000    -0.4108     3.2296     3.2296    -0.0000
 91 C      6.0205     6.0000    -0.0205     3.9291     3.9291    -0.0000
 92 C      5.5942     6.0000     0.4058     3.9100     3.9100    -0.0000
 93 O      8.4856     8.0000    -0.4856     1.9957     1.9957    -0.0000
 94 H      0.8223     1.0000     0.1777     0.9684     0.9684     0.0000
 95 C      6.0581     6.0000    -0.0581     3.8739     3.8739    -0.0000
 96 H      0.8377     1.0000     0.1623     0.9736     0.9736    -0.0000
 97 H      0.8596     1.0000     0.1404     0.9803     0.9803     0.0000
 98 O      8.5371     8.0000    -0.5371     1.8727     1.8727    -0.0000
 99 H      0.6724     1.0000     0.3276     0.8927     0.8927     0.0000
100 H      0.7120     1.0000     0.2880     0.9170     0.9170     0.0000
101 N      7.4076     7.0000    -0.4076     3.2187     3.2187     0.0000
102 C      6.0188     6.0000    -0.0188     3.9271     3.9271    -0.0000
103 C      5.5936     6.0000     0.4064     3.9099     3.9099    -0.0000
104 O      8.4969     8.0000    -0.4969     1.9825     1.9825     0.0000
105 C      6.2419     6.0000    -0.2419     3.9440     3.9440     0.0000
106 C      6.2580     6.0000    -0.2580     3.9470     3.9470    -0.0000
107 S     16.0900    16.0000    -0.0900     2.0832     2.0832    -0.0000
108 C      6.3956     6.0000    -0.3956     3.9233     3.9233    -0.0000
109 H      0.8240     1.0000     0.1760     0.9690     0.9690    -0.0000
110 H      0.8591     1.0000     0.1409     0.9801     0.9801    -0.0000
111 H      0.8350     1.0000     0.1650     0.9728     0.9728    -0.0000
112 H      0.8506     1.0000     0.1494     0.9777     0.9777    -0.0000
113 H      0.8678     1.0000     0.1322     0.9825     0.9825    -0.0000
114 H      0.8533     1.0000     0.1467     0.9785     0.9785    -0.0000
115 H      0.8486     1.0000     0.1514     0.9771     0.9771    -0.0000
116 H      0.8537     1.0000     0.1463     0.9786     0.9786    -0.0000
117 H      0.7074     1.0000     0.2926     0.9144     0.9144    -0.0000
118 N      7.4117     7.0000    -0.4117     3.2369     3.2369    -0.0000
119 C      6.1434     6.0000    -0.1434     3.9013     3.9013    -0.0000
120 C      5.6062     6.0000     0.3938     3.9192     3.9192     0.0000
121 O      8.5050     8.0000    -0.5050     1.9774     1.9774    -0.0000
122 H      0.8289     1.0000     0.1711     0.9707     0.9707    -0.0000
123 H      0.8283     1.0000     0.1717     0.9705     0.9705    -0.0000
124 H      0.7163     1.0000     0.2837     0.9195     0.9195     0.0000
125 N      7.4151     7.0000    -0.4151     3.2486     3.2486    -0.0000
126 C      6.0315     6.0000    -0.0315     3.9146     3.9146     0.0000
127 C      5.6283     6.0000     0.3717     3.9311     3.9311    -0.0000
128 O      8.6233     8.0000    -0.6233     1.8816     1.8816    -0.0000
129 C      6.2773     6.0000    -0.2773     3.9576     3.9576    -0.0000
130 C      5.6307     6.0000     0.3693     3.9337     3.9337    -0.0000
131 O      8.6180     8.0000    -0.6180     1.8837     1.8837    -0.0000
132 O      8.7104     8.0000    -0.7104     1.6728     1.6728    -0.0000
133 H      0.8600     1.0000     0.1400     0.9804     0.9804    -0.0000
134 H      0.8727     1.0000     0.1273     0.9838     0.9838    -0.0000
135 H      0.8543     1.0000     0.1457     0.9788     0.9788    -0.0000
136 H      0.7213     1.0000     0.2787     0.9223     0.9223     0.0000
137 O      8.6711     8.0000    -0.6711     1.7123     1.7123     0.0000

  Mayer bond orders larger than 0.100000
B(  0-N ,  1-C ) :   0.9142 B(  0-N , 15-H ) :   0.7806 B(  0-N , 17-H ) :   0.7875 
B(  0-N , 18-H ) :   0.8130 B(  1-C ,  2-C ) :   0.9499 B(  1-C ,  4-C ) :   0.9772 
B(  1-C , 16-H ) :   0.9247 B(  2-C ,  3-O ) :   1.7460 B(  2-C , 19-N ) :   1.1858 
B(  3-O , 19-N ) :   0.1494 B(  4-C ,  5-H ) :   0.9482 B(  4-C ,  6-H ) :   0.9437 
B(  4-C ,  7-C ) :   1.0190 B(  7-C ,  8-N ) :   1.1679 B(  7-C ,  9-C ) :   0.1135 
B(  7-C , 12-C ) :   1.5911 B(  8-N ,  9-C ) :   1.1981 B(  8-N , 14-H ) :   0.8741 
B(  9-C , 10-H ) :   0.9433 B(  9-C , 11-N ) :   1.5987 B( 11-N , 12-C ) :   1.2623 
B( 12-C , 13-H ) :   0.9589 B( 19-N , 20-C ) :   0.9643 B( 19-N , 40-H ) :   0.8738 
B( 20-C , 21-C ) :   0.9529 B( 20-C , 23-C ) :   0.9806 B( 20-C , 28-H ) :   0.9363 
B( 21-C , 22-O ) :   1.7304 B( 21-C , 41-N ) :   1.1862 B( 22-O , 41-N ) :   0.1529 
B( 23-C , 24-C ) :   1.0059 B( 23-C , 29-H ) :   0.9649 B( 23-C , 30-H ) :   0.9472 
B( 24-C , 25-C ) :   1.0040 B( 24-C , 31-H ) :   0.9638 B( 24-C , 32-H ) :   0.9615 
B( 25-C , 26-C ) :   1.0025 B( 25-C , 33-H ) :   0.9610 B( 25-C , 34-H ) :   0.9610 
B( 26-C , 27-N ) :   0.9002 B( 26-C , 35-H ) :   0.9481 B( 26-C , 36-H ) :   0.9485 
B( 27-N , 37-H ) :   0.8345 B( 27-N , 38-H ) :   0.8373 B( 27-N , 39-H ) :   0.8351 
B( 41-N , 42-C ) :   0.9685 B( 41-N , 51-H ) :   0.8755 B( 42-C , 43-C ) :   0.9523 
B( 42-C , 45-H ) :   0.9320 B( 42-C , 46-C ) :   0.9792 B( 43-C , 44-O ) :   1.7321 
B( 43-C , 52-N ) :   1.1887 B( 44-O , 52-N ) :   0.1515 B( 46-C , 47-H ) :   0.9453 
B( 46-C , 48-H ) :   0.9537 B( 46-C , 49-O ) :   0.9520 B( 49-O , 50-H ) :   0.8738 
B( 52-N , 53-C ) :   0.9642 B( 52-N , 72-H ) :   0.8777 B( 53-C , 54-C ) :   0.9531 
B( 53-C , 56-C ) :   0.9746 B( 53-C , 71-H ) :   0.9353 B( 54-C , 55-O ) :   1.7390 
B( 54-C , 73-N ) :   1.1758 B( 55-O , 73-N ) :   0.1441 B( 56-C , 57-H ) :   0.9454 
B( 56-C , 58-H ) :   0.9629 B( 56-C , 59-C ) :   1.0100 B( 59-C , 60-C ) :   1.4257 
B( 59-C , 64-C ) :   0.1011 B( 59-C , 67-C ) :   1.4245 B( 60-C , 61-H ) :   0.9584 
B( 60-C , 62-C ) :   1.4539 B( 60-C , 65-C ) :   0.1092 B( 62-C , 63-H ) :   0.9583 
B( 62-C , 64-C ) :   1.3953 B( 62-C , 67-C ) :   0.1122 B( 64-C , 65-C ) :   1.3963 
B( 64-C , 69-O ) :   1.0095 B( 65-C , 66-H ) :   0.9576 B( 65-C , 67-C ) :   1.4540 
B( 67-C , 68-H ) :   0.9585 B( 69-O , 70-H ) :   0.8521 B( 73-N , 74-C ) :   0.9648 
B( 73-N , 89-H ) :   0.8827 B( 74-C , 75-C ) :   0.9523 B( 74-C , 77-C ) :   0.9802 
B( 74-C , 81-H ) :   0.9350 B( 75-C , 76-O ) :   1.7427 B( 75-C , 90-N ) :   1.1763 
B( 76-O , 90-N ) :   0.1527 B( 77-C , 78-C ) :   1.0078 B( 77-C , 82-H ) :   0.9616 
B( 77-C , 83-H ) :   0.9453 B( 78-C , 79-S ) :   0.9984 B( 78-C , 84-H ) :   0.9562 
B( 78-C , 85-H ) :   0.9554 B( 79-S , 80-C ) :   1.0175 B( 80-C , 86-H ) :   0.9648 
B( 80-C , 87-H ) :   0.9646 B( 80-C , 88-H ) :   0.9646 B( 90-N , 91-C ) :   0.9693 
B( 90-N ,100-H ) :   0.8771 B( 91-C , 92-C ) :   0.9530 B( 91-C , 94-H ) :   0.9321 
B( 91-C , 95-C ) :   0.9789 B( 92-C , 93-O ) :   1.7386 B( 92-C ,101-N ) :   1.1785 
B( 93-O ,101-N ) :   0.1448 B( 95-C , 96-H ) :   0.9452 B( 95-C , 97-H ) :   0.9539 
B( 95-C , 98-O ) :   0.9522 B( 98-O , 99-H ) :   0.8748 B(101-N ,102-C ) :   0.9650 
B(101-N ,117-H ) :   0.8811 B(102-C ,103-C ) :   0.9527 B(102-C ,105-C ) :   0.9801 
B(102-C ,109-H ) :   0.9348 B(103-C ,104-O ) :   1.7335 B(103-C ,118-N ) :   1.1849 
B(104-O ,118-N ) :   0.1550 B(105-C ,106-C ) :   1.0078 B(105-C ,110-H ) :   0.9615 
B(105-C ,111-H ) :   0.9452 B(106-C ,107-S ) :   0.9984 B(106-C ,112-H ) :   0.9562 
B(106-C ,113-H ) :   0.9549 B(107-S ,108-C ) :   1.0175 B(108-C ,114-H ) :   0.9646 
B(108-C ,115-H ) :   0.9646 B(108-C ,116-H ) :   0.9647 B(118-N ,119-C ) :   0.9712 
B(118-N ,124-H ) :   0.8813 B(119-C ,120-C ) :   0.9643 B(119-C ,122-H ) :   0.9408 
B(119-C ,123-H ) :   0.9405 B(120-C ,121-O ) :   1.7113 B(120-C ,125-N ) :   1.2103 
B(121-O ,125-N ) :   0.1601 B(125-N ,126-C ) :   0.9433 B(125-N ,136-H ) :   0.8854 
B(126-C ,127-C ) :   0.9188 B(126-C ,129-C ) :   0.9880 B(126-C ,133-H ) :   0.9463 
B(127-C ,128-O ) :   1.5712 B(127-C ,137-O ) :   1.4259 B(128-O ,137-O ) :   0.2310 
B(129-C ,130-C ) :   0.9489 B(129-C ,134-H ) :   0.9603 B(129-C ,135-H ) :   0.9499 
B(130-C ,131-O ) :   1.5867 B(130-C ,132-O ) :   1.3883 B(131-O ,132-O ) :   0.2320 


-------
TIMINGS
-------

Total SCF time: 0 days 0 hours 1 min 0 sec 

Total time                  ....      60.232 sec
Sum of individual times     ....      54.158 sec  ( 89.9%)

Fock matrix formation       ....      51.556 sec  ( 85.6%)
Diagonalization             ....       1.507 sec  (  2.5%)
Density matrix formation    ....       0.031 sec  (  0.1%)
Population analysis         ....       0.368 sec  (  0.6%)
Initial guess               ....       0.695 sec  (  1.2%)
Orbital Transformation      ....       0.000 sec  (  0.0%)
Orbital Orthonormalization  ....       0.000 sec  (  0.0%)
DIIS solution               ....       0.000 sec  (  0.0%)


-------------------------------------------------------------------------------
                          DFT DISPERSION CORRECTION                            
                                                                               
                              DFTD3 V3.1  Rev 1                                
                          USING Becke-Johnson damping                          
-------------------------------------------------------------------------------
Hartree-Fock is recognized
Active option DFTDOPT                   ...         4   

molecular C6(AA) [au] = 188755.347240 


            DFT-D V3
 parameters
 using HF/MINIX parameters
 s6 scaling factor         :     1.0000 
 a1 scaling factor         :     0.4171 
 s8 scaling factor         :     0.8777 
 a2 scaling factor         :     2.9149 
 ad hoc parameters k1-k3   :    16.0000     1.3333    -4.0000 

 Edisp/kcal,au: -454.819464688809  -0.724800875480 
 E6   /kcal   : -258.529124803 
 E8   /kcal   : -196.290339886 
 % E8         :  43.157858255 

-------------------------   ----------------
Dispersion correction           -0.724800875
-------------------------   ----------------

------------------   -----------------
gCP+bas correction        -0.668598857
------------------   -----------------
----------------------------   ----------------
Total correction to HF/MINIX       -1.393399733
----------------------------   ----------------


-------------------------   --------------------
FINAL SINGLE POINT ENERGY     -4211.756974813871
-------------------------   --------------------


                            ***************************************
                            *     ORCA property calculations      *
                            ***************************************

                                    ---------------------
                                    Active property flags
                                    ---------------------
   (+) Dipole Moment


------------------------------------------------------------------------------
                       ORCA ELECTRIC PROPERTIES CALCULATION
------------------------------------------------------------------------------

Dipole Moment Calculation                       ... on
Quadrupole Moment Calculation                   ... off
Polarizability Calculation                      ... off
GBWName                                         ... HKSYMSMGD.gbw
Electron density file                           ... HKSYMSMGD.scfp
The origin for moment calculation is the CENTER OF MASS  = (24.690791,  0.259359 16.014858)

-------------
DIPOLE MOMENT
-------------
                                X             Y             Z
Electronic contribution:     11.60855       4.24530       8.67014
Nuclear contribution   :   -108.82631     -12.76702     -56.67887
                        -----------------------------------------
Total Dipole Moment    :    -97.21776      -8.52172     -48.00873
                        -----------------------------------------
Magnitude (a.u.)       :    108.76006
Magnitude (Debye)      :    276.44611



--------------------
Rotational spectrum 
--------------------
 
Rotational constants in cm-1:     0.001961     0.000174     0.000161 
Rotational constants in MHz :    58.790439     5.217472     4.836047 

 Dipole components along the rotational axes: 
x,y,z [a.u.] :   107.962587    13.126178     0.731258 
x,y,z [Debye]:   274.419088    33.364092     1.858711 

 
--------------------------------------------------------------------------
WARNING: No preset parameters were found for the device that Open MPI
detected:

  Local host:            c0703a-s21
  Device name:           mlx5_0
  Device vendor ID:      0x02c9
  Device vendor part ID: 4123

Default device parameters will be used, which may result in lower
performance.  You can edit any of the files specified by the
btl_openib_device_param_files MCA parameter to set values for your
device.

NOTE: You can turn off this warning by setting the MCA parameter
      btl_openib_warn_no_device_params_found to 0.
--------------------------------------------------------------------------
--------------------------------------------------------------------------
WARNING: There was an error initializing an OpenFabrics device.

  Local host:   c0703a-s21
  Local device: mlx5_0
--------------------------------------------------------------------------
[c0703a-s21.ufhpc:84220] 14 more processes have sent help message help-mpi-btl-openib.txt / no device params found
[c0703a-s21.ufhpc:84220] Set MCA parameter "orte_base_help_aggregate" to 0 to see all help / error messages
[c0703a-s21.ufhpc:84220] 14 more processes have sent help message help-mpi-btl-openib.txt / error in device init

Timings for individual modules:

Sum of individual times         ...       65.167 sec (=   1.086 min)
GTO integral calculation        ...        2.972 sec (=   0.050 min)   4.6 %
SCF iterations                  ...       62.195 sec (=   1.037 min)  95.4 %
                             ****ORCA TERMINATED NORMALLY****
TOTAL RUN TIME: 0 days 0 hours 1 minutes 7 seconds 353 msec
