/home/zfg2013/blue_zfg2013/INPS
c0703a-s22.ufhpc
Fri Aug  4 00:39:52 EDT 2023

                                 *****************
                                 * O   R   C   A *
                                 *****************

           --- An Ab Initio, DFT and Semiempirical electronic structure package ---

                  #######################################################
                  #                        -***-                        #
                  #          Department of theory and spectroscopy      #
                  #               Directorship: Frank Neese             #
                  #        Max Planck Institute fuer Kohlenforschung    #
                  #                Kaiser Wilhelm Platz 1               #
                  #                 D-45470 Muelheim/Ruhr               #
                  #                      Germany                        #
                  #                                                     #
                  #                  All rights reserved                #
                  #                        -***-                        #
                  #######################################################


                         Program Version 4.2.1 -  RELEASE  -


 With contributions from (in alphabetic order):
   Daniel Aravena         : Magnetic Suceptibility
   Michael Atanasov       : Ab Initio Ligand Field Theory (pilot matlab implementation)
   Alexander A. Auer      : GIAO ZORA, VPT2
   Ute Becker             : Parallelization
   Giovanni Bistoni       : ED, misc. LED, open-shell LED, HFLD
   Martin Brehm           : Molecular dynamics
   Dmytro Bykov           : SCF Hessian
   Vijay G. Chilkuri      : MRCI spin determinant printing, contributions to CSF-ICE
   Dipayan Datta          : RHF DLPNO-CCSD density
   Achintya Kumar Dutta   : EOM-CC, STEOM-CC
   Dmitry Ganyushin       : Spin-Orbit,Spin-Spin,Magnetic field MRCI
   Miquel Garcia          : C-PCM Hessian, Gaussian charge scheme
   Yang Guo               : DLPNO-NEVPT2, CIM, IAO-localization
   Andreas Hansen         : Spin unrestricted coupled pair/coupled cluster methods
   Benjamin Helmich-Paris : CASSCF linear response (MC-RPA)
   Lee Huntington         : MR-EOM, pCC
   Robert Izsak           : Overlap fitted RIJCOSX, COSX-SCS-MP3, EOM
   Christian Kollmar      : KDIIS, OOCD, Brueckner-CCSD(T), CCSD density
   Simone Kossmann        : Meta GGA functionals, TD-DFT gradient, OOMP2, MP2 Hessian
   Martin Krupicka        : AUTO-CI
   Lucas Lang             : DCDCAS
   Dagmar Lenk            : GEPOL surface, SMD
   Dimitrios Liakos       : Extrapolation schemes; Compound Job, initial MDCI parallelization
   Dimitrios Manganas     : Further ROCIS development; embedding schemes
   Dimitrios Pantazis     : SARC Basis sets
   Taras Petrenko         : DFT Hessian,TD-DFT gradient, ASA, ECA, R-Raman, ABS, FL, XAS/XES, NRVS
   Peter Pinski           : DLPNO-MP2, DLPNO-MP2 Gradient
   Christoph Reimann      : Effective Core Potentials
   Marius Retegan         : Local ZFS, SOC
   Christoph Riplinger    : Optimizer, TS searches, QM/MM, DLPNO-CCSD(T), (RO)-DLPNO pert. Triples
   Tobias Risthaus        : Range-separated hybrids, TD-DFT gradient, RPA, STAB
   Michael Roemelt        : Original ROCIS implementation
   Masaaki Saitow         : Open-shell DLPNO-CCSD energy and density
   Barbara Sandhoefer     : DKH picture change effects
   Avijit Sen             : IP-ROCIS
   Kantharuban Sivalingam : CASSCF convergence, NEVPT2, FIC-MRCI
   Bernardo de Souza      : ESD, SOC TD-DFT
   Georgi Stoychev        : AutoAux, RI-MP2 NMR
   Willem Van den Heuvel  : Paramagnetic NMR
   Boris Wezisla          : Elementary symmetry handling
   Frank Wennmohs         : Technical directorship


 We gratefully acknowledge several colleagues who have allowed us to
 interface, adapt or use parts of their codes:
   Stefan Grimme, W. Hujo, H. Kruse,             : VdW corrections, initial TS optimization,
                  C. Bannwarth                     DFT functionals, gCP, sTDA/sTD-DF
   Ed Valeev, F. Pavosevic, A. Kumar             : LibInt (2-el integral package), F12 methods
   Garnet Chan, S. Sharma, J. Yang, R. Olivares  : DMRG
   Ulf Ekstrom                                   : XCFun DFT Library
   Mihaly Kallay                                 : mrcc  (arbitrary order and MRCC methods)
   Andreas Klamt, Michael Diedenhofen            : otool_cosmo (COSMO solvation model)
   Jiri Pittner, Ondrej Demel                    : Mk-CCSD
   Frank Weinhold                                : gennbo (NPA and NBO analysis)
   Christopher J. Cramer and Donald G. Truhlar   : smd solvation model
   Lars Goerigk                                  : TD-DFT with DH, B97 family of functionals
   V. Asgeirsson, H. Jonsson                     : NEB implementation
   FAccTs GmbH                                   : IRC, NEB, NEB-TS, Multilevel, MM, QM/MM, CI optimization
   S Lehtola, MJT Oliveira, MAL Marques          : LibXC Library


 Your calculation uses the libint2 library for the computation of 2-el integrals
 For citations please refer to: http://libint.valeyev.net

 Your ORCA version has been built with support for libXC version: 4.2.3
 For citations please refer to: https://tddft.org/programs/libxc/

 This ORCA versions uses:
   CBLAS   interface :  Fast vector & matrix operations
   LAPACKE interface :  Fast linear algebra routines
   SCALAPACK package :  Parallel linear algebra routines


Your calculation utilizes the geometrical counterpoise correction gCP
Please cite in your paper:
H.Kruse, S. Grimme J.Chem.Phys., 136, (2012), 154101 
   

Your calculation utilizes the atom-pairwise dispersion correction
with the Becke-Johnson damping scheme (D3BJ)
Cite in your paper:
S.Grimme, S.Ehrlich, L.Goerigk, J Comput Chem, (2011), 32, 1456–1465 
S.Grimme, J.Antony, S.Ehrlich and H.Krieg, J.Chem.Phys., 132, (2010), 154104 
   

Your calculation utilizes the SMD solvation module
Please cite in your paper:
A.V. Marenich, C.J. Cramer, D.G. Truhlar J. Phys. Chem. B, 113, (2009), 6378 

----- Orbital basis set information -----
Your calculation utilizes the basis: MINIX,
   a combination of small basis sets by S. Grimme (see manual for definitions).

================================================================================
                                        WARNINGS
                       Please study these warnings very carefully!
================================================================================


INFO   : the flag for use of LIBINT has been found!

================================================================================
                                       INPUT FILE
================================================================================
NAME = HKTNTWWET.inp
|  1> !HF-3c CPCM KDIIS SmallPrint
|  2> %PAL NPROCS 15 END
|  3> %maxcore 10000
|  4> %CPCM
|  5> SMD TRUE
|  6> SMDSOLVENT "WATER"
|  7> END
|  8> 
|  9> %scf
| 10> SCFmode Direct
| 11> maxiter 10000
| 12> 
| 13> end
| 14> 
| 15> %geom
| 16> 
| 17> Constraints
| 18> {C 2 C}
| 19> {C 21 C}
| 20> {C 43 C}
| 21> {C 57 C}
| 22> {C 71 C}
| 23> {C 85 C}
| 24> {C 109 C}
| 25> {C 133 C}
| 26> {C 148 C}
| 27> 
| 28> end
| 29> 
| 30> maxiter 10000
| 31> 
| 32> end
| 33> 
| 34> * xyz 0 1
| 35>    N        0.00000         0.00000         0.00000
| 36>    C        1.46145         0.00000         0.00000
| 37>    C        1.94774         0.00000         1.45615
| 38>    O        1.18426         0.00000         2.41946
| 39>    C        2.04411         1.20336         -0.76878
| 40>    H        2.63381         1.85004         -0.10703
| 41>    H        1.24387         1.83827         -1.17112
| 42>    C        2.90609         0.76454         -1.90397
| 43>    N        2.40386         0.09306         -2.99477
| 44>    C        3.45453         -0.18863         -3.81870
| 45>    H        3.33445         -0.73115         -4.74678
| 46>    N        4.58505         0.27510         -3.33539
| 47>    C        4.25427         0.88487         -2.15432
| 48>    H        5.00749         1.36841         -1.54511
| 49>    H        1.43192         -0.17656         -3.13345
| 50>    H        -0.46323         0.13431         0.89571
| 51>    H        1.77077         -0.95781         -0.43895
| 52>    H        -0.34000         0.08381         -0.95801
| 53>    H        -0.34000         0.94706         -0.16699
| 54>    N        3.26069         -0.00000         1.72406
| 55>    C        3.72296         0.00022         3.10830
| 56>    C        5.25957         0.00016         3.05115
| 57>    O        5.89478         -0.00005         1.99805
| 58>    C        3.17221         -1.22220         3.85582
| 59>    C        3.49760         -1.23091         5.35214
| 60>    C        2.76820         -2.36936         6.07164
| 61>    C        3.16412         -2.43597         7.54599
| 62>    N        2.43343         -3.50207         8.21876
| 63>    H        3.37443         0.85767         3.64516
| 64>    H        3.56358         -2.10444         3.39388
| 65>    H        2.11168         -1.22213         3.71379
| 66>    H        3.21324         -0.29072         5.77650
| 67>    H        4.55447         -1.35132         5.46806
| 68>    H        3.00258         -3.29454         5.58790
| 69>    H        1.71448         -2.20937         5.97690
| 70>    H        2.94242         -1.49942         8.01356
| 71>    H        4.21673         -2.61502         7.61570
| 72>    H        2.75555         -3.57872         9.18352
| 73>    H        2.64374         -4.39381         7.77046
| 74>    H        1.43137         -3.32635         8.14527
| 75>    H        3.96942         -0.42893         1.12898
| 76>    N        5.97225         0.00033         4.18591
| 77>    C        7.43686         0.00004         4.13143
| 78>    C        7.91479         0.00034         5.59179
| 79>    O        7.14268         0.00074         6.54929
| 80>    C        9.48269         1.08418         3.03392
| 81>    C        7.99880         1.22002         3.36010
| 82>    O        7.33230         1.43157         2.10661
| 83>    H        9.81158         1.91465         2.39901
| 84>    H        9.67449         0.16510         2.46907
| 85>    H        10.10417         1.08183         3.93235
| 86>    H        7.84819         2.13313         3.94777
| 87>    H        7.74199         -0.93422         3.64476
| 88>    H        6.94471         0.58049         1.81203
| 89>    H        5.53694         0.37542         5.02463
| 90>    N        9.22610         0.00018         5.86761
| 91>    C        9.68182         0.00068         7.26009
| 92>    C        11.22145         0.00032         7.19854
| 93>    O        11.84677         -0.00028         6.13741
| 94>    C        9.16846         -1.23047         8.00619
| 95>    H        8.09199         -1.35727         7.83850
| 96>    H        9.66969         -2.13689         7.64502
| 97>    C        9.37710         -1.12457         9.49822
| 98>    O        9.85118         -0.14849         10.06913
| 99>    N        9.02147         -2.23992         10.19729
|100>    H        8.56143         -3.03370         9.77239
|101>    H        9.11563         -2.22082         11.20504
|102>    H        9.33967         0.93251         7.72588
|103>    H        9.92271         -0.20357         5.15454
|104>    N        11.93726         0.00065         8.33133
|105>    C        13.40172         0.00009         8.27280
|106>    C        13.88369         0.00068         9.73182
|107>    O        13.11424         0.00147         10.69145
|108>    C        15.44470         1.08355         7.16933
|109>    C        13.96174         1.21975         7.49959
|110>    O        13.29181         1.43110         6.24789
|111>    H        15.77199         1.91380         6.53329
|112>    H        15.63477         0.16429         6.60420
|113>    H        16.06866         1.08133         8.06604
|114>    H        13.81293         2.13305         8.08743
|115>    H        13.70533         -0.93436         7.78552
|116>    H        12.90325         0.58001         5.95461
|117>    H        11.50435         0.37604         9.17115
|118>    N        15.19576         0.00034         10.00400
|119>    C        15.65484         0.00113         11.39371
|120>    C        17.19214         0.00048         11.34049
|121>    O        17.82555         -0.00052         10.28494
|122>    C        15.13358         -1.22407         12.15987
|123>    H        15.70881         -2.11627         11.87830
|124>    H        14.09626         -1.43654         11.86943
|125>    C        15.16554         -1.06053         13.65112
|126>    C        16.07655         -1.62047         14.52608
|127>    N        15.74243         -1.23954         15.79822
|128>    H        16.23018         -1.51658         16.63886
|129>    C        14.62562         -0.43784         15.77659
|130>    C        14.23693         -0.31112         14.44308
|131>    C        13.09427         0.45937         14.14534
|132>    H        12.75648         0.57680         13.11800
|133>    C        12.38502         1.06986         15.18593
|134>    H        11.50006         1.65807         14.95508
|135>    C        12.79892         0.92542         16.50768
|136>    H        12.23107         1.40440         17.30211
|137>    C        13.92965         0.16876         16.82938
|138>    H        14.24472         0.05379         17.86120
|139>    H        16.92708         -2.26708         14.35203
|140>    H        15.86890         -0.27376         9.29309
|141>    H        15.31931         0.93880         11.85310
|142>    N        17.90189         0.00098         12.47709
|143>    C        19.36459         0.00014         12.42644
|144>    C        19.84708         0.00103         13.88704
|145>    O        19.07624         0.00221         14.84682
|146>    C        19.90284         1.22520         11.67189
|147>    H        19.83795         2.11751         12.30887
|148>    H        19.27112         1.43753         10.79932
|149>    C        21.31285         1.06152         11.18542
|150>    C        22.44920         1.62152         11.73692
|151>    N        23.52688         1.24043         10.98296
|152>    H        24.48443         1.51746         11.14934
|153>    C        23.11977         0.43856         9.94290
|154>    C        21.73417         0.31190         10.04013
|155>    C        21.05908         -0.45874         9.07144
|156>    H        19.97834         -0.57612         9.11038
|157>    C        21.78962         -1.06942         8.04580
|158>    H        21.26654         -1.65775         7.29565
|159>    C        23.17291         -0.92504         7.97629
|160>    H        23.72149         -1.40418         7.16852
|161>    C        23.86635         -0.16824         8.92549
|162>    H        24.94343         -0.05332         8.86367
|163>    H        22.58052         2.26827         12.59498
|164>    H        17.46812         0.27525         13.35473
|165>    H        19.67931         -0.93762         11.95274
|166>    N        21.15915         0.00053         14.15922
|167>    C        21.61729         0.00159         15.54609
|168>    C        23.16148         0.00064         15.49356
|169>    O        23.78950         -0.00075         14.43438
|170>    C        21.04944         -1.19428         16.32356
|171>    H        20.19381         -1.63884         15.79875
|172>    H        21.79470         -1.99664         16.39444
|173>    C        20.57619         -0.78078         17.71679
|174>    H        21.33475         -0.20388         18.25626
|175>    H        19.68708         -0.14441         17.64070
|176>    C        20.26630         -1.99433         18.54262
|177>    O        21.06934         -2.85497         18.86443
|178>    O        18.98010         -2.06486         18.92134
|179>    H        21.87669         -0.02517         13.43809
|180>    H        21.29953         0.95426         15.98752
|181>    N        23.87054         0.00132         16.63059
|182>    C        25.33532         0.00019         16.58077
|183>    C        25.80861         0.00138         18.04263
|184>    O        25.03346         0.00296         18.99767
|185>    C        27.38522         1.08233         15.48890
|186>    C        25.90038         1.21924         15.81026
|187>    O        25.23798         1.43017         14.55449
|188>    H        27.71659         1.91212         14.85438
|189>    H        27.57831         0.16270         14.92540
|190>    H        28.00384         1.08036         16.38931
|191>    H        25.74840         2.13290         16.39672
|192>    H        25.64148         -0.93462         16.09580
|193>    H        24.85087         0.57907         14.25935
|194>    H        23.43278         0.37731         17.46762
|195>    O        27.14369         0.00062         18.24937
|196> *
|197> 
|198>                          ****END OF INPUT****
================================================================================

                       ****************************
                       * Single Point Calculation *
                       ****************************

---------------------------------
CARTESIAN COORDINATES (ANGSTROEM)
---------------------------------
  N      0.000000    0.000000    0.000000
  C      1.461450    0.000000    0.000000
  C      1.947740    0.000000    1.456150
  O      1.184260    0.000000    2.419460
  C      2.044110    1.203360   -0.768780
  H      2.633810    1.850040   -0.107030
  H      1.243870    1.838270   -1.171120
  C      2.906090    0.764540   -1.903970
  N      2.403860    0.093060   -2.994770
  C      3.454530   -0.188630   -3.818700
  H      3.334450   -0.731150   -4.746780
  N      4.585050    0.275100   -3.335390
  C      4.254270    0.884870   -2.154320
  H      5.007490    1.368410   -1.545110
  H      1.431920   -0.176560   -3.133450
  H     -0.463230    0.134310    0.895710
  H      1.770770   -0.957810   -0.438950
  H     -0.340000    0.083810   -0.958010
  H     -0.340000    0.947060   -0.166990
  N      3.260690   -0.000000    1.724060
  C      3.722960    0.000220    3.108300
  C      5.259570    0.000160    3.051150
  O      5.894780   -0.000050    1.998050
  C      3.172210   -1.222200    3.855820
  C      3.497600   -1.230910    5.352140
  C      2.768200   -2.369360    6.071640
  C      3.164120   -2.435970    7.545990
  N      2.433430   -3.502070    8.218760
  H      3.374430    0.857670    3.645160
  H      3.563580   -2.104440    3.393880
  H      2.111680   -1.222130    3.713790
  H      3.213240   -0.290720    5.776500
  H      4.554470   -1.351320    5.468060
  H      3.002580   -3.294540    5.587900
  H      1.714480   -2.209370    5.976900
  H      2.942420   -1.499420    8.013560
  H      4.216730   -2.615020    7.615700
  H      2.755550   -3.578720    9.183520
  H      2.643740   -4.393810    7.770460
  H      1.431370   -3.326350    8.145270
  H      3.969420   -0.428930    1.128980
  N      5.972250    0.000330    4.185910
  C      7.436860    0.000040    4.131430
  C      7.914790    0.000340    5.591790
  O      7.142680    0.000740    6.549290
  C      9.482690    1.084180    3.033920
  C      7.998800    1.220020    3.360100
  O      7.332300    1.431570    2.106610
  H      9.811580    1.914650    2.399010
  H      9.674490    0.165100    2.469070
  H     10.104170    1.081830    3.932350
  H      7.848190    2.133130    3.947770
  H      7.741990   -0.934220    3.644760
  H      6.944710    0.580490    1.812030
  H      5.536940    0.375420    5.024630
  N      9.226100    0.000180    5.867610
  C      9.681820    0.000680    7.260090
  C     11.221450    0.000320    7.198540
  O     11.846770   -0.000280    6.137410
  C      9.168460   -1.230470    8.006190
  H      8.091990   -1.357270    7.838500
  H      9.669690   -2.136890    7.645020
  C      9.377100   -1.124570    9.498220
  O      9.851180   -0.148490   10.069130
  N      9.021470   -2.239920   10.197290
  H      8.561430   -3.033700    9.772390
  H      9.115630   -2.220820   11.205040
  H      9.339670    0.932510    7.725880
  H      9.922710   -0.203570    5.154540
  N     11.937260    0.000650    8.331330
  C     13.401720    0.000090    8.272800
  C     13.883690    0.000680    9.731820
  O     13.114240    0.001470   10.691450
  C     15.444700    1.083550    7.169330
  C     13.961740    1.219750    7.499590
  O     13.291810    1.431100    6.247890
  H     15.771990    1.913800    6.533290
  H     15.634770    0.164290    6.604200
  H     16.068660    1.081330    8.066040
  H     13.812930    2.133050    8.087430
  H     13.705330   -0.934360    7.785520
  H     12.903250    0.580010    5.954610
  H     11.504350    0.376040    9.171150
  N     15.195760    0.000340   10.004000
  C     15.654840    0.001130   11.393710
  C     17.192140    0.000480   11.340490
  O     17.825550   -0.000520   10.284940
  C     15.133580   -1.224070   12.159870
  H     15.708810   -2.116270   11.878300
  H     14.096260   -1.436540   11.869430
  C     15.165540   -1.060530   13.651120
  C     16.076550   -1.620470   14.526080
  N     15.742430   -1.239540   15.798220
  H     16.230180   -1.516580   16.638860
  C     14.625620   -0.437840   15.776590
  C     14.236930   -0.311120   14.443080
  C     13.094270    0.459370   14.145340
  H     12.756480    0.576800   13.118000
  C     12.385020    1.069860   15.185930
  H     11.500060    1.658070   14.955080
  C     12.798920    0.925420   16.507680
  H     12.231070    1.404400   17.302110
  C     13.929650    0.168760   16.829380
  H     14.244720    0.053790   17.861200
  H     16.927080   -2.267080   14.352030
  H     15.868900   -0.273760    9.293090
  H     15.319310    0.938800   11.853100
  N     17.901890    0.000980   12.477090
  C     19.364590    0.000140   12.426440
  C     19.847080    0.001030   13.887040
  O     19.076240    0.002210   14.846820
  C     19.902840    1.225200   11.671890
  H     19.837950    2.117510   12.308870
  H     19.271120    1.437530   10.799320
  C     21.312850    1.061520   11.185420
  C     22.449200    1.621520   11.736920
  N     23.526880    1.240430   10.982960
  H     24.484430    1.517460   11.149340
  C     23.119770    0.438560    9.942900
  C     21.734170    0.311900   10.040130
  C     21.059080   -0.458740    9.071440
  H     19.978340   -0.576120    9.110380
  C     21.789620   -1.069420    8.045800
  H     21.266540   -1.657750    7.295650
  C     23.172910   -0.925040    7.976290
  H     23.721490   -1.404180    7.168520
  C     23.866350   -0.168240    8.925490
  H     24.943430   -0.053320    8.863670
  H     22.580520    2.268270   12.594980
  H     17.468120    0.275250   13.354730
  H     19.679310   -0.937620   11.952740
  N     21.159150    0.000530   14.159220
  C     21.617290    0.001590   15.546090
  C     23.161480    0.000640   15.493560
  O     23.789500   -0.000750   14.434380
  C     21.049440   -1.194280   16.323560
  H     20.193810   -1.638840   15.798750
  H     21.794700   -1.996640   16.394440
  C     20.576190   -0.780780   17.716790
  H     21.334750   -0.203880   18.256260
  H     19.687080   -0.144410   17.640700
  C     20.266300   -1.994330   18.542620
  O     21.069340   -2.854970   18.864430
  O     18.980100   -2.064860   18.921340
  H     21.876690   -0.025170   13.438090
  H     21.299530    0.954260   15.987520
  N     23.870540    0.001320   16.630590
  C     25.335320    0.000190   16.580770
  C     25.808610    0.001380   18.042630
  O     25.033460    0.002960   18.997670
  C     27.385220    1.082330   15.488900
  C     25.900380    1.219240   15.810260
  O     25.237980    1.430170   14.554490
  H     27.716590    1.912120   14.854380
  H     27.578310    0.162700   14.925400
  H     28.003840    1.080360   16.389310
  H     25.748400    2.132900   16.396720
  H     25.641480   -0.934620   16.095800
  H     24.850870    0.579070   14.259350
  H     23.432780    0.377310   17.467620
  O     27.143690    0.000620   18.249370

----------------------------
CARTESIAN COORDINATES (A.U.)
----------------------------
  NO LB      ZA    FRAG     MASS         X           Y           Z
   0 N     7.0000    0    14.007    0.000000    0.000000    0.000000
   1 C     6.0000    0    12.011    2.761740    0.000000    0.000000
   2 C     6.0000    0    12.011    3.680695    0.000000    2.751725
   3 O     8.0000    0    15.999    2.237927    0.000000    4.572117
   4 C     6.0000    0    12.011    3.862808    2.274021   -1.452784
   5 H     1.0000    0     1.008    4.977180    3.496069   -0.202257
   6 H     1.0000    0     1.008    2.350574    3.473827   -2.213096
   7 C     6.0000    0    12.011    5.491714    1.444771   -3.597982
   8 N     7.0000    0    14.007    4.542637    0.175858   -5.659295
   9 C     6.0000    0    12.011    6.528116   -0.356459   -7.216297
  10 H     1.0000    0     1.008    6.301197   -1.381673   -8.970114
  11 N     7.0000    0    14.007    8.664489    0.519864   -6.302974
  12 C     6.0000    0    12.011    8.039405    1.672162   -4.071075
  13 H     1.0000    0     1.008    9.462785    2.585920   -2.919835
  14 H     1.0000    0     1.008    2.705937   -0.333650   -5.921362
  15 H     1.0000    0     1.008   -0.875378    0.253809    1.692647
  16 H     1.0000    0     1.008    3.346270   -1.809999   -0.829495
  17 H     1.0000    0     1.008   -0.642507    0.158378   -1.810377
  18 H     1.0000    0     1.008   -0.642507    1.789684   -0.315565
  19 N     7.0000    0    14.007    6.161811   -0.000000    3.258001
  20 C     6.0000    0    12.011    7.035375    0.000416    5.873836
  21 C     6.0000    0    12.011    9.939147    0.000302    5.765838
  22 O     8.0000    0    15.999   11.139520   -0.000094    3.775767
  23 C     6.0000    0    12.011    5.994608   -2.309623    7.286444
  24 C     6.0000    0    12.011    6.609506   -2.326083   10.114079
  25 C     6.0000    0    12.011    5.231140   -4.477442   11.473737
  26 C     6.0000    0    12.011    5.979320   -4.603316   14.259855
  27 N     7.0000    0    14.007    4.598516   -6.617953   15.531206
  28 H     1.0000    0     1.008    6.376749    1.620761    6.888354
  29 H     1.0000    0     1.008    6.734190   -3.976815    6.413504
  30 H     1.0000    0     1.008    3.990497   -2.309491    7.018046
  31 H     1.0000    0     1.008    6.072144   -0.549381   10.916003
  32 H     1.0000    0     1.008    8.606701   -2.553625   10.333136
  33 H     1.0000    0     1.008    5.674054   -6.225778   10.559601
  34 H     1.0000    0     1.008    3.239898   -4.175104   11.294704
  35 H     1.0000    0     1.008    5.560368   -2.833493   15.143434
  36 H     1.0000    0     1.008    7.968465   -4.941672   14.391587
  37 H     1.0000    0     1.008    5.207235   -6.762801   17.354338
  38 H     1.0000    0     1.008    4.995945   -8.303098   14.684041
  39 H     1.0000    0     1.008    2.704897   -6.285891   15.392330
  40 H     1.0000    0     1.008    7.501117   -0.810560    2.133463
  41 N     7.0000    0    14.007   11.285917    0.000624    7.910224
  42 C     6.0000    0    12.011   14.053629    0.000076    7.807271
  43 C     6.0000    0    12.011   14.956786    0.000643   10.566952
  44 O     8.0000    0    15.999   13.497709    0.001398   12.376364
  45 C     6.0000    0    12.011   17.919687    2.048803    5.733278
  46 C     6.0000    0    12.011   15.115541    2.305504    6.349669
  47 O     8.0000    0    15.999   13.856039    2.705275    3.980916
  48 H     1.0000    0     1.008   18.541199    3.618164    4.533472
  49 H     1.0000    0     1.008   18.282137    0.311994    4.665866
  50 H     1.0000    0     1.008   19.094114    2.044362    7.431065
  51 H     1.0000    0     1.008   14.830930    4.031032    7.460204
  52 H     1.0000    0     1.008   14.630241   -1.765420    6.887598
  53 H     1.0000    0     1.008   13.123600    1.096967    3.424240
  54 H     1.0000    0     1.008   10.463300    0.709441    9.495175
  55 N     7.0000    0    14.007   17.434802    0.000340   11.088176
  56 C     6.0000    0    12.011   18.295988    0.001285   13.719582
  57 C     6.0000    0    12.011   21.205467    0.000605   13.603269
  58 O     8.0000    0    15.999   22.387151   -0.000529   11.598024
  59 C     6.0000    0    12.011   17.325878   -2.325251   15.129506
  60 H     1.0000    0     1.008   15.291645   -2.564869   14.812618
  61 H     1.0000    0     1.008   18.273066   -4.038137   14.446994
  62 C     6.0000    0    12.011   17.720151   -2.125129   17.949035
  63 O     8.0000    0    15.999   18.616032   -0.280605   19.027898
  64 N     7.0000    0    14.007   17.048108   -4.232835   19.270085
  65 H     1.0000    0     1.008   16.178758   -5.732862   18.467141
  66 H     1.0000    0     1.008   17.226044   -4.196742   21.174457
  67 H     1.0000    0     1.008   17.649418    1.762189   14.599797
  68 H     1.0000    0     1.008   18.751204   -0.384692    9.740669
  69 N     7.0000    0    14.007   22.558152    0.001228   15.743932
  70 C     6.0000    0    12.011   25.325581    0.000170   15.633326
  71 C     6.0000    0    12.011   26.236372    0.001285   18.390475
  72 O     8.0000    0    15.999   24.782322    0.002778   20.203912
  73 C     6.0000    0    12.011   29.186253    2.047613   13.548070
  74 C     6.0000    0    12.011   26.383865    2.304993   14.172171
  75 O     8.0000    0    15.999   25.117881    2.704387   11.806801
  76 H     1.0000    0     1.008   29.804742    3.616558   12.346129
  77 H     1.0000    0     1.008   29.545433    0.310463   12.480129
  78 H     1.0000    0     1.008   30.365367    2.043418   15.242607
  79 H     1.0000    0     1.008   26.102655    4.030880   15.283028
  80 H     1.0000    0     1.008   25.899320   -1.765685   14.712501
  81 H     1.0000    0     1.008   24.383609    1.096060   11.252582
  82 H     1.0000    0     1.008   21.740071    0.710613   17.330962
  83 N     7.0000    0    14.007   28.715825    0.000643   18.904820
  84 C     6.0000    0    12.011   29.583360    0.002135   21.530992
  85 C     6.0000    0    12.011   32.488436    0.000907   21.430420
  86 O     8.0000    0    15.999   33.685408   -0.000983   19.435720
  87 C     6.0000    0    12.011   28.598322   -2.313157   22.978824
  88 H     1.0000    0     1.008   29.685349   -3.999171   22.446734
  89 H     1.0000    0     1.008   26.638071   -2.714667   22.429972
  90 C     6.0000    0    12.011   28.658717   -2.004111   25.796878
  91 C     6.0000    0    12.011   30.380277   -3.062245   27.450313
  92 N     7.0000    0    14.007   29.748881   -2.342391   29.854309
  93 H     1.0000    0     1.008   30.670595   -2.865921   31.442889
  94 C     6.0000    0    12.011   27.638416   -0.827398   29.813434
  95 C     6.0000    0    12.011   26.903899   -0.587932   27.293466
  96 C     6.0000    0    12.011   24.744584    0.868083   26.730819
  97 H     1.0000    0     1.008   24.106254    1.089994   24.789427
  98 C     6.0000    0    12.011   23.404296    2.021742   28.697249
  99 H     1.0000    0     1.008   21.731964    3.133298   28.261006
 100 C     6.0000    0    12.011   24.186454    1.748790   31.194994
 101 H     1.0000    0     1.008   23.113373    2.653931   32.696249
 102 C     6.0000    0    12.011   26.323224    0.318910   31.802919
 103 H     1.0000    0     1.008   26.918620    0.101648   33.752776
 104 H     1.0000    0     1.008   31.987545   -4.284160   27.121406
 105 H     1.0000    0     1.008   29.987875   -0.517331   17.561395
 106 H     1.0000    0     1.008   28.949300    1.774075   22.399113
 107 N     7.0000    0    14.007   33.829669    0.001852   23.578283
 108 C     6.0000    0    12.011   36.593772    0.000265   23.482568
 109 C     6.0000    0    12.011   37.505546    0.001946   26.242702
 110 O     8.0000    0    15.999   36.048869    0.004176   28.056424
 111 C     6.0000    0    12.011   37.610917    2.315292   22.056676
 112 H     1.0000    0     1.008   37.488293    4.001514   23.260393
 113 H     1.0000    0     1.008   36.417139    2.716538   20.407757
 114 C     6.0000    0    12.011   40.275450    2.005982   21.137380
 115 C     6.0000    0    12.011   42.422840    3.064229   22.179564
 116 N     7.0000    0    14.007   44.459360    2.344073   20.754787
 117 H     1.0000    0     1.008   46.268867    2.867584   21.069199
 118 C     6.0000    0    12.011   43.690034    0.828758   18.789358
 119 C     6.0000    0    12.011   41.071629    0.589406   18.973096
 120 C     6.0000    0    12.011   39.795894   -0.866893   17.142537
 121 H     1.0000    0     1.008   37.753591   -1.088709   17.216123
 122 C     6.0000    0    12.011   41.176414   -2.020911   15.204359
 123 H     1.0000    0     1.008   40.187936   -3.132693   13.786780
 124 C     6.0000    0    12.011   43.790454   -1.748072   15.073004
 125 H     1.0000    0     1.008   44.827120   -2.653516   13.546540
 126 C     6.0000    0    12.011   45.100865   -0.317928   16.866732
 127 H     1.0000    0     1.008   47.136252   -0.100760   16.749909
 128 H     1.0000    0     1.008   42.670999    4.286409   23.801063
 129 H     1.0000    0     1.008   33.009963    0.520147   25.236782
 130 H     1.0000    0     1.008   37.188506   -1.771845   22.587405
 131 N     7.0000    0    14.007   39.984999    0.001002   26.757048
 132 C     6.0000    0    12.011   40.850758    0.003005   29.377853
 133 C     6.0000    0    12.011   43.768854    0.001209   29.278585
 134 O     8.0000    0    15.999   44.955640   -0.001417   27.277025
 135 C     6.0000    0    12.011   39.777677   -2.256862   30.847058
 136 H     1.0000    0     1.008   38.160771   -3.096959   29.855311
 137 H     1.0000    0     1.008   41.186014   -3.773103   30.981002
 138 C     6.0000    0    12.011   38.883364   -1.475460   33.479881
 139 H     1.0000    0     1.008   40.316835   -0.385277   34.499332
 140 H     1.0000    0     1.008   37.203190   -0.272895   33.336092
 141 C     6.0000    0    12.011   38.297757   -3.768738   35.040474
 142 O     8.0000    0    15.999   39.815282   -5.395111   35.648606
 143 O     8.0000    0    15.999   35.867191   -3.902020   35.756151
 144 H     1.0000    0     1.008   41.340953   -0.047564   25.394310
 145 H     1.0000    0     1.008   40.250278    1.803290   30.212034
 146 N     7.0000    0    14.007   45.108783    0.002494   31.427261
 147 C     6.0000    0    12.011   47.876816    0.000359   31.333114
 148 C     6.0000    0    12.011   48.771205    0.002608   34.095629
 149 O     8.0000    0    15.999   47.306384    0.005594   35.900393
 150 C     6.0000    0    12.011   51.750566    2.045307   29.269779
 151 C     6.0000    0    12.011   48.944625    2.304030   29.877062
 152 O     8.0000    0    15.999   47.692870    2.702630   27.504000
 153 H     1.0000    0     1.008   52.376764    3.613383   28.070710
 154 H     1.0000    0     1.008   52.115453    0.307458   28.204918
 155 H     1.0000    0     1.008   52.919588    2.041585   30.971307
 156 H     1.0000    0     1.008   48.657424    4.030597   30.985310
 157 H     1.0000    0     1.008   48.455375   -1.766176   30.416654
 158 H     1.0000    0     1.008   46.961338    1.094284   26.946266
 159 H     1.0000    0     1.008   44.281537    0.713013   33.009018
 160 O     8.0000    0    15.999   51.294140    0.001172   34.486311

--------------------------------
INTERNAL COORDINATES (ANGSTROEM)
--------------------------------
 N      0   0   0     0.000000000000     0.00000000     0.00000000
 C      1   0   0     1.461450000000     0.00000000     0.00000000
 C      2   1   0     1.535203825751   108.46705034     0.00000000
 O      3   2   1     1.229173651890   123.13404915     0.00000000
 C      2   1   3     1.542268022621   112.19712055   237.42706994
 H      5   2   1     1.097202886845   111.24028393   117.65762040
 H      5   2   1     1.097894458179   111.00952425     0.15449122
 C      5   2   1     1.491384876181   111.60442919   239.34855475
 N      8   5   2     1.375850647163   122.41774934    65.86697841
 C      9   8   5     1.364594207045   107.36071879   181.64955907
 H     10   9   8     1.081702197095   122.41863490   178.92627196
 N     10   9   8     1.314043203019   111.56098054   359.06026605
 C     12  10   9     1.369730340688   105.45507388   359.80727685
 H     13  12  10     1.082722551765   121.06297386   180.67549538
 H      9   8   5     1.018132825519   125.85277034   359.16782239
 H      1   2   3     1.017309005711   117.08735136     8.52785658
 H      2   1   3     1.098069196818   106.36136092   114.62127838
 H      1   2   3     1.020003566758   109.47114980   175.00029763
 H      1   2   3     1.020004070433   109.47113980    99.99986914
 N      3   2   1     1.340005026334   120.00003797   180.00000000
 C     20   3   2     1.459388220762   119.99984300   179.99002660
 C     21  20   3     1.537672402757   106.33687736   180.00012519
 O     22  21  20     1.229842021643   123.22756288     0.00000000
 C     21  20   3     1.535064288328   110.37251818    58.16474413
 C     24  21  20     1.531315793231   113.83641549   185.56113205
 C     25  24  21     1.531591659843   111.22731394   172.43834735
 C     26  25  24     1.528037126840   111.23998461   176.22998273
 N     27  26  25     1.457084952568   110.33214227   178.51601344
 H     21  20   3     1.070005758396   111.89115294   300.28598399
 H     24  21  20     1.070003017799   108.36877217    63.03250473
 H     24  21  20     1.069998320887   106.91268749   307.10887181
 H     25  24  21     1.069999652009   109.03016550    51.09911614
 H     25  24  21     1.070004771672   108.44427868   293.05895874
 H     26  25  24     1.069998319812   109.02670713    54.77055458
 H     26  25  24     1.069999208458   108.43652136   297.70502867
 H     27  26  25     1.069999297850   109.25590231    58.01274856
 H     27  26  25     1.070002896585   108.96840825   299.29206507
 H     28  27  26     1.019999203186   109.47121207   175.98163024
 H     28  27  26     1.020001673381   109.47122523    59.52586174
 H     28  27  26     1.020001246127   109.47157936   300.40222005
 H     20   3   2     1.019999688333   124.34411385   329.38206212
 N     22  21  20     1.339997413766   120.00067908   179.99997172
 C     42  22  21     1.465622941483   120.00037073   179.98949072
 C     43  42  22     1.536576878812   105.99136046   180.00005327
 O     44  43  42     1.230024496545   122.99630219     0.00000000
 C     43  42  22     2.562285723451   144.46156913    46.75207996
 C     46  43  42     1.525377143562    33.83582353    19.97106284
 O     47  46  43     1.435344151275   106.14691251   236.31113103
 H     46  43  42     1.095883096457   143.94196113    10.36704042
 H     46  43  42     1.095696494884    90.32464171   250.95698713
 H     46  43  42     1.092437356465    95.79976145   142.00245434
 H     47  46  43     1.096270620376   108.81124279   122.21172559
 H     43  42  22     1.096719541815   107.13906661   296.96596978
 H     48  47  46     0.980479755477   108.54228326    99.77212403
 H     42  22  21     1.016680157473   118.09477857   335.28914507
 N     44  43  42     1.340003960479   120.00004125   180.00064110
 C     56  44  43     1.465155800180   120.00022440   179.99033922
 C     57  56  44     1.540859847293   105.83252488   179.99972947
 O     58  57  56     1.231674607719   122.79999285     0.00000000
 C     57  56  44     1.528376269804   111.05122182    59.70440168
 H     60  57  56     1.096807110207   110.37410343   311.14791974
 H     60  57  56     1.096937782283   110.57387018    70.10658989
 C     60  57  56     1.510264539907   112.29562015   191.66974217
 O     63  60  57     1.226141199414   124.69636199     2.84543147
 N     63  60  57     1.363516477458   114.40077611   184.43349804
 H     65  63  60     1.011070472321   123.05285186   353.50435459
 H     65  63  60     1.012319602744   118.07901405   181.56725964
 H     57  56  44     1.096509961423   107.87595453   296.79046580
 H     56  44  43     1.017471562010   121.71920954   346.40519384
 N     58  57  56     1.339998973544   119.99948412   180.00009860
 C     70  58  57     1.465629273077   120.00006294   179.99017816
 C     71  70  58     1.536565907926   105.99163060   179.99977279
 O     72  71  70     1.230017749262   122.99632819     0.00000000
 C     71  70  58     2.562283921212   144.46182584    46.74989385
 C     74  71  70     1.525382728760    33.83556409    19.97242465
 O     75  74  71     1.435349406033   106.14658813   236.31050160
 H     74  71  70     1.095892644468   143.94208656    10.36944142
 H     74  71  70     1.095690407643    90.32514261   250.95822999
 H     74  71  70     1.092437565310    95.79937652   142.00343048
 H     75  74  71     1.096274222857   108.81107244   122.21179859
 H     71  70  58     1.096730428592   107.13834208   296.96577476
 H     76  75  74     0.980482646506   108.54184965    99.77212044
 H     70  58  57     1.016674162453   118.09536802   335.28859045
 N     72  71  70     1.340003639137   119.99975216   179.99959003
 C     84  72  71     1.463574034547   119.99996048   179.98969214
 C     85  84  72     1.538221076731   106.29781835   180.00037501
 O     86  85  84     1.231013822262   122.94969589     0.00000000
 C     85  84  72     1.536173223696   111.51277432    59.07183923
 H     88  85  84     1.098267753237   110.01876142    76.42842159
 H     88  85  84     1.097967065490   110.05907501   320.40501709
 C     88  85  84     1.500531017907   113.67251568   199.50376223
 C     91  88  85     1.381675441375   126.81393076   256.21316990
 N     92  91  88     1.369337072784   108.34210072   180.85634830
 H     93  92  91     1.010607160919   125.36276596   178.97351500
 C     93  92  91     1.374938297888   110.22958180     0.00000000
 C     95  93  92     1.394771233787   107.12000116     0.20814759
 C     96  95  93     1.409955965022   118.51498833   179.32324878
 H     97  96  95     1.087804837551   120.66912582   180.35660997
 C     97  96  95     1.399486030906   119.47751235   359.90899389
 H     99  97  96     1.087399157715   119.37738793   180.41827407
 C     99  97  96     1.392551322609   120.65513024     0.14211316
 H    101  99  97     1.087655500515   119.49948762   180.27410075
 C    101  99  97     1.398061364354   120.99295436   359.96572831
 H    103 101  99     1.084960698920   120.73409730   180.39318047
 H     92  91  88     1.082496732328   131.17161846     0.02474942
 H     84  72  71     1.016681512422   120.41979410   341.82430960
 H     85  84  72     1.096742714542   107.59143266   296.30302720
 N     86  85  84     1.340001818096   119.99996721   180.00063578
 C    108  86  85     1.463576925925   119.99946849   179.98998586
 C    109 108  86     1.538229421185   106.29703630   179.99951894
 O    110 109 108     1.231005014775   122.95029786     0.00000000
 C    109 108  86     1.536174068457   111.51312591    59.07164055
 H    112 109 108     1.098258334182   110.01970999    76.42782476
 H    112 109 108     1.097967482305   110.05844934   320.40404238
 C    112 109 108     1.500524042926   113.67203723   199.50404598
 C    115 112 109     1.381681429455   126.81354612   256.21234827
 N    116 115 112     1.369335405261   108.34253027   180.85659889
 H    117 116 115     1.010608691730   125.36292468   178.97438010
 C    117 116 115     1.374939581436   110.22927065     0.00000000
 C    119 117 116     1.394770156155   107.12010186     0.20827184
 C    120 119 117     1.409961997289   118.51527583   179.32321492
 H    121 120 119     1.087792873483   120.66916860   180.35704521
 C    121 120 119     1.399484249143   119.47670189   359.90865246
 H    123 121 120     1.087414317452   119.37699427   180.41851834
 C    123 121 120     1.392540286168   120.65574516     0.14260902
 H    125 123 121     1.087661495549   119.49931470   180.27392861
 C    125 123 121     1.398065060575   120.99342511   359.96541910
 H    127 125 123     1.084956056806   120.73386611   180.39357180
 H    116 115 112     1.082495943872   131.17185618     0.02529352
 H    108  86  85     1.016677144132   120.41949624   341.82332147
 H    109 108  86     1.096737975088   107.59136457   296.30185161
 N    110 109 108     1.340003689286   119.99967157   180.00012731
 C    132 110 109     1.460582685129   119.99987841   179.99026443
 C    133 132 110     1.545083512144   106.33214517   179.99979885
 O    134 133 132     1.231370506753   122.61333357     0.00000000
 C    133 132 110     1.535258375747   111.36262635    56.84067078
 H    136 133 132     1.097798627527   111.19991762   343.02242720
 H    136 133 132     1.097368676243   110.55154748    99.63471522
 C    136 133 132     1.528410169228   111.43284534   222.85328834
 H    139 136 133     1.095104910271   112.15368281   310.06151833
 H    139 136 133     1.096026029390   110.18045672    68.97707183
 C    139 136 133     1.500243514734   110.29745717   190.47811946
 O    142 139 136     1.220301654223   125.43138046    62.29647226
 O    142 139 136     1.342651763973   113.30561846   242.15884128
 H    132 110 109     1.017621058400   123.12633831   358.33648427
 H    133 132 110     1.097001363445   106.96939428   294.85356966
 N    134 133 132     1.340001405559   119.99960026   179.99974103
 C    147 134 133     1.465627427998   119.99992916   179.98966902
 C    148 147 134     1.536567440694   105.99178049   180.00025847
 O    149 148 147     1.230024967430   122.99599682     0.00000000
 C    148 147 134     2.562283568714   144.46153927    46.75107270
 C    151 148 147     1.525374191240    33.83563470    19.97185327
 O    152 151 148     1.435347873444   106.14679062   236.31051520
 H    151 148 147     1.095889205805   143.94224094    10.36853394
 H    151 148 147     1.095689433644    90.32481146   250.95748503
 H    151 148 147     1.092443478355    95.79948408   142.00284993
 H    152 151 148     1.096269970217   108.81158980   122.21190090
 H    148 147 134     1.096722199374   107.13872423   296.96652526
 H    153 152 151     0.980475895522   108.54193350    99.77156507
 H    147 134 133     1.016671785091   118.09555180   335.28893146
 O    149 148 147     1.350992454309   116.74223404   180.00021990

---------------------------
INTERNAL COORDINATES (A.U.)
---------------------------
 N      0   0   0     0.000000000000     0.00000000     0.00000000
 C      1   0   0     2.761740258419     0.00000000     0.00000000
 C      2   1   0     2.901114790417   108.46705034     0.00000000
 O      3   2   1     2.322801573103   123.13404915     0.00000000
 C      2   1   3     2.914464187858   112.19712055   237.42706994
 H      5   2   1     2.073412969484   111.24028393   117.65762040
 H      5   2   1     2.074719849908   111.00952425     0.15449122
 C      5   2   1     2.818308976253   111.60442919   239.34855475
 N      8   5   2     2.599980924317   122.41774934    65.86697841
 C      9   8   5     2.578709335250   107.36071879   181.64955907
 H     10   9   8     2.044120910970   122.41863490   178.92627196
 N     10   9   8     2.483181781846   111.56098054   359.06026605
 C     12  10   9     2.588415221222   105.45507388   359.80727685
 H     13  12  10     2.046049101856   121.06297386   180.67549538
 H      9   8   5     1.923992208187   125.85277034   359.16782239
 H      1   2   3     1.922435414365   117.08735136     8.52785658
 H      2   1   3     2.075050058080   106.36136092   114.62127838
 H      1   2   3     1.927527396796   109.47114980   175.00029763
 H      1   2   3     1.927528348603   109.47113980    99.99986914
 N      3   2   1     2.532242517849   120.00003797   180.00000000
 C     20   3   2     2.757844060312   119.99984300   179.99002660
 C     21  20   3     2.905779724899   106.33687736   180.00012519
 O     22  21  20     2.324064608894   123.22756288     0.00000000
 C     21  20   3     2.900851102903   110.37251818    58.16474413
 C     24  21  20     2.893767473756   113.83641549   185.56113205
 C     25  24  21     2.894288786101   111.22731394   172.43834735
 C     26  25  24     2.887571692191   111.23998461   176.22998273
 N     27  26  25     2.753491514211   110.33214227   178.51601344
 H     21  20   3     2.022017845087   111.89115294   300.28598399
 H     24  21  20     2.022012666110   108.36877217    63.03250473
 H     24  21  20     2.022003790231   106.91268749   307.10887181
 H     25  24  21     2.022006305689   109.03016550    51.09911614
 H     25  24  21     2.022015980448   108.44427868   293.05895874
 H     26  25  24     2.022003788200   109.02670713    54.77055458
 H     26  25  24     2.022005467497   108.43652136   297.70502867
 H     27  26  25     2.022005636425   109.25590231    58.01274856
 H     27  26  25     2.022012437048   108.96840825   299.29206507
 H     28  27  26     1.927519150839   109.47121207   175.98163024
 H     28  27  26     1.927523818831   109.47122523    59.52586174
 H     28  27  26     1.927523011438   109.47157936   300.40222005
 H     20   3   2     1.927520067635   124.34411385   329.38206212
 N     22  21  20     2.532228132181   120.00067908   179.99997172
 C     42  22  21     2.769625974994   120.00037073   179.98949072
 C     43  42  22     2.903709484670   105.99136046   180.00005327
 O     44  43  42     2.324409436484   122.99630219     0.00000000
 C     43  42  22     4.842018294178   144.46156913    46.75207996
 C     46  43  42     2.882545052274    33.83582353    19.97106284
 O     47  46  43     2.712407353836   106.14691251   236.31113103
 H     46  43  42     2.070918927097   143.94196113    10.36704042
 H     46  43  42     2.070566301227    90.32464171   250.95698713
 H     46  43  42     2.064407422184    95.79976145   142.00245434
 H     47  46  43     2.071651241175   108.81124279   122.21172559
 H     43  42  22     2.072499579751   107.13906661   296.96596978
 H     48  47  46     1.852838217705   108.54228326    99.77212403
 H     42  22  21     1.921247063417   118.09477857   335.28914507
 N     44  43  42     2.532240503676   120.00004125   180.00064110
 C     56  44  43     2.768743205866   120.00022440   179.99033922
 C     57  56  44     2.911803122140   105.83252488   179.99972947
 O     58  57  56     2.327527694694   122.79999285     0.00000000
 C     57  56  44     2.888212579514   111.05122182    59.70440168
 H     60  57  56     2.072665060028   110.37410343   311.14791974
 H     60  57  56     2.072911994466   110.57387018    70.10658989
 C     60  57  56     2.853986370196   112.29562015   191.66974217
 O     63  60  57     2.317071068410   124.69636199     2.84543147
 N     63  60  57     2.576672721485   114.40077611   184.43349804
 H     65  63  60     1.910646294782   123.05285186   353.50435459
 H     65  63  60     1.913006809186   118.07901405   181.56725964
 H     57  56  44     2.072103530206   107.87595453   296.79046580
 H     56  44  43     1.922742601253   121.71920954   346.40519384
 N     58  57  56     2.532231079734   119.99948412   180.00009860
 C     70  58  57     2.769637939973   120.00006294   179.99017816
 C     71  70  58     2.903688752700   105.99163060   179.99977279
 O     72  71  70     2.324396685968   122.99632819     0.00000000
 C     71  70  58     4.842014888440   144.46182584    46.74989385
 C     74  71  70     2.882555606770    33.83556409    19.97242465
 O     75  74  71     2.712417283889   106.14658813   236.31050160
 H     74  71  70     2.070936970224   143.94208656    10.36944142
 H     74  71  70     2.070554798009    90.32514261   250.95822999
 H     74  71  70     2.064407816843    95.79937652   142.00343048
 H     75  74  71     2.071658048876   108.81107244   122.21179859
 H     71  70  58     2.072520152777   107.13834208   296.96577476
 H     76  75  74     1.852843680959   108.54184965    99.77212044
 H     70  58  57     1.921235734470   118.09536802   335.28859045
 N     72  71  70     2.532239896426   119.99975216   179.99959003
 C     84  72  71     2.765754102012   119.99996048   179.98969214
 C     85  84  72     2.906816568447   106.29781835   180.00037501
 O     86  85  84     2.326278991147   122.94969589     0.00000000
 C     85  84  72     2.902946687048   111.51277432    59.07183923
 H     88  85  84     2.075425275335   110.01876142    76.42842159
 H     88  85  84     2.074857057841   110.05907501   320.40501709
 C     88  85  84     2.835592679298   113.67251568   199.50376223
 C     91  88  85     2.610988190164   126.81393076   256.21316990
 N     92  91  88     2.587672052587   108.34210072   180.85634830
 H     93  92  91     1.909770763116   125.36276596   178.97351500
 C     93  92  91     2.598256834049   110.22958180     0.00000000
 C     95  93  92     2.635735651329   107.12000116     0.20814759
 C     96  95  93     2.664430634779   118.51498833   179.32324878
 H     97  96  95     2.055653230127   120.66912582   180.35660997
 C     97  96  95     2.644645326660   119.47751235   359.90899389
 H     99  97  96     2.054886606339   119.37738793   180.41827407
 C     99  97  96     2.631540627161   120.65513024     0.14211316
 H    101  99  97     2.055371024026   119.49948762   180.27410075
 C    101  99  97     2.641953097046   120.99295436   359.96572831
 H    103 101  99     2.050278587026   120.73409730   180.39318047
 H     92  91  88     2.045622364964   131.17161846     0.02474942
 H     84  72  71     1.921249623898   120.41979410   341.82430960
 H     85  84  72     2.072543369857   107.59143266   296.30302720
 N     86  85  84     2.532236455158   119.99996721   180.00063578
 C    108  86  85     2.765759565925   119.99946849   179.98998586
 C    109 108  86     2.906832337180   106.29703630   179.99951894
 O    110 109 108     2.326262347408   122.95029786     0.00000000
 C    109 108  86     2.902948283415   111.51312591    59.07164055
 H    112 109 108     2.075407475900   110.01970999    76.42782476
 H    112 109 108     2.074857845508   110.05844934   320.40404238
 C    112 109 108     2.835579498495   113.67203723   199.50404598
 C    115 112 109     2.610999505994   126.81354612   256.21234827
 N    116 115 112     2.587668901424   108.34253027   180.85659889
 H    117 116 115     1.909773655930   125.36292468   178.97438010
 C    117 116 115     2.598259259603   110.22927065     0.00000000
 C    119 117 116     2.635733614899   107.12010186     0.20827184
 C    120 119 117     2.664442034113   118.51527583   179.32321492
 H    121 120 119     2.055630621314   120.66916860   180.35704521
 C    121 120 119     2.644641959617   119.47670189   359.90865246
 H    123 121 120     2.054915254090   119.37699427   180.41851834
 C    123 121 120     2.631519771309   120.65574516     0.14260902
 H    125 123 121     2.055382352999   119.49931470   180.27392861
 C    125 123 121     2.641960081890   120.99342511   359.96541910
 H    127 125 123     2.050269814702   120.73386611   180.39357180
 H    116 115 112     2.045620874999   131.17185618     0.02529352
 H    108  86  85     1.921241369026   120.41949624   341.82332147
 H    109 108  86     2.072534413588   107.59136457   296.30185161
 N    110 109 108     2.532239991195   119.99967157   180.00012731
 C    132 110 109     2.760101270842   119.99987841   179.99026443
 C    133 132 110     2.919784691990   106.33214517   179.99979885
 O    134 133 132     2.326953027150   122.61333357     0.00000000
 C    133 132 110     2.901217874970   111.36262635    56.84067078
 H    136 133 132     2.074538756221   111.19991762   343.02242720
 H    136 133 132     2.073726266044   110.55154748    99.63471522
 C    136 133 132     2.888276640141   111.43284534   222.85328834
 H    139 136 133     2.069448368325   112.15368281   310.06151833
 H    139 136 133     2.071189031196   110.18045672    68.97707183
 C    139 136 133     2.835049377038   110.29745717   190.47811946
 O    142 139 136     2.306035927253   125.43138046    62.29647226
 O    142 139 136     2.537244127135   113.30561846   242.15884128
 H    132 110 109     1.923025108488   123.12633831   358.33648427
 H    133 132 110     2.073032145449   106.96939428   294.85356966
 N    134 133 132     2.532235675576   119.99960026   179.99974103
 C    147 134 133     2.769634453280   119.99992916   179.98966902
 C    148 147 134     2.903691649211   105.99178049   180.00025847
 O    149 148 147     2.324410326327   122.99599682     0.00000000
 C    148 147 134     4.842014222315   144.46153927    46.75107270
 C    151 148 147     2.882539473195    33.83563470    19.97185327
 O    152 151 148     2.712414387715   106.14679062   236.31051520
 H    151 148 147     2.070930472092   143.94224094    10.36853394
 H    151 148 147     2.070552957419    90.32481146   250.95748503
 H    151 148 147     2.064418990879    95.79948408   142.00284993
 H    152 151 148     2.071650012552   108.81158980   122.21190090
 H    148 147 134     2.072504601809   107.13872423   296.96652526
 H    153 152 151     1.852830923448   108.54193350    99.77156507
 H    147 134 133     1.921231241907   118.09555180   335.28893146
 O    149 148 147     2.553005747638   116.74223404   180.00021990

---------------------
BASIS SET INFORMATION
---------------------
There are 4 groups of distinct atoms

 Group   1 Type N   : 6s3p contracted to 2s1p pattern {33/3}
 Group   2 Type C   : 6s3p contracted to 2s1p pattern {33/3}
 Group   3 Type O   : 6s3p contracted to 2s1p pattern {33/3}
 Group   4 Type H   : 3s contracted to 1s pattern {3}

Atom   0N    basis set group =>   1
Atom   1C    basis set group =>   2
Atom   2C    basis set group =>   2
Atom   3O    basis set group =>   3
Atom   4C    basis set group =>   2
Atom   5H    basis set group =>   4
Atom   6H    basis set group =>   4
Atom   7C    basis set group =>   2
Atom   8N    basis set group =>   1
Atom   9C    basis set group =>   2
Atom  10H    basis set group =>   4
Atom  11N    basis set group =>   1
Atom  12C    basis set group =>   2
Atom  13H    basis set group =>   4
Atom  14H    basis set group =>   4
Atom  15H    basis set group =>   4
Atom  16H    basis set group =>   4
Atom  17H    basis set group =>   4
Atom  18H    basis set group =>   4
Atom  19N    basis set group =>   1
Atom  20C    basis set group =>   2
Atom  21C    basis set group =>   2
Atom  22O    basis set group =>   3
Atom  23C    basis set group =>   2
Atom  24C    basis set group =>   2
Atom  25C    basis set group =>   2
Atom  26C    basis set group =>   2
Atom  27N    basis set group =>   1
Atom  28H    basis set group =>   4
Atom  29H    basis set group =>   4
Atom  30H    basis set group =>   4
Atom  31H    basis set group =>   4
Atom  32H    basis set group =>   4
Atom  33H    basis set group =>   4
Atom  34H    basis set group =>   4
Atom  35H    basis set group =>   4
Atom  36H    basis set group =>   4
Atom  37H    basis set group =>   4
Atom  38H    basis set group =>   4
Atom  39H    basis set group =>   4
Atom  40H    basis set group =>   4
Atom  41N    basis set group =>   1
Atom  42C    basis set group =>   2
Atom  43C    basis set group =>   2
Atom  44O    basis set group =>   3
Atom  45C    basis set group =>   2
Atom  46C    basis set group =>   2
Atom  47O    basis set group =>   3
Atom  48H    basis set group =>   4
Atom  49H    basis set group =>   4
Atom  50H    basis set group =>   4
Atom  51H    basis set group =>   4
Atom  52H    basis set group =>   4
Atom  53H    basis set group =>   4
Atom  54H    basis set group =>   4
Atom  55N    basis set group =>   1
Atom  56C    basis set group =>   2
Atom  57C    basis set group =>   2
Atom  58O    basis set group =>   3
Atom  59C    basis set group =>   2
Atom  60H    basis set group =>   4
Atom  61H    basis set group =>   4
Atom  62C    basis set group =>   2
Atom  63O    basis set group =>   3
Atom  64N    basis set group =>   1
Atom  65H    basis set group =>   4
Atom  66H    basis set group =>   4
Atom  67H    basis set group =>   4
Atom  68H    basis set group =>   4
Atom  69N    basis set group =>   1
Atom  70C    basis set group =>   2
Atom  71C    basis set group =>   2
Atom  72O    basis set group =>   3
Atom  73C    basis set group =>   2
Atom  74C    basis set group =>   2
Atom  75O    basis set group =>   3
Atom  76H    basis set group =>   4
Atom  77H    basis set group =>   4
Atom  78H    basis set group =>   4
Atom  79H    basis set group =>   4
Atom  80H    basis set group =>   4
Atom  81H    basis set group =>   4
Atom  82H    basis set group =>   4
Atom  83N    basis set group =>   1
Atom  84C    basis set group =>   2
Atom  85C    basis set group =>   2
Atom  86O    basis set group =>   3
Atom  87C    basis set group =>   2
Atom  88H    basis set group =>   4
Atom  89H    basis set group =>   4
Atom  90C    basis set group =>   2
Atom  91C    basis set group =>   2
Atom  92N    basis set group =>   1
Atom  93H    basis set group =>   4
Atom  94C    basis set group =>   2
Atom  95C    basis set group =>   2
Atom  96C    basis set group =>   2
Atom  97H    basis set group =>   4
Atom  98C    basis set group =>   2
Atom  99H    basis set group =>   4
Atom 100C    basis set group =>   2
Atom 101H    basis set group =>   4
Atom 102C    basis set group =>   2
Atom 103H    basis set group =>   4
Atom 104H    basis set group =>   4
Atom 105H    basis set group =>   4
Atom 106H    basis set group =>   4
Atom 107N    basis set group =>   1
Atom 108C    basis set group =>   2
Atom 109C    basis set group =>   2
Atom 110O    basis set group =>   3
Atom 111C    basis set group =>   2
Atom 112H    basis set group =>   4
Atom 113H    basis set group =>   4
Atom 114C    basis set group =>   2
Atom 115C    basis set group =>   2
Atom 116N    basis set group =>   1
Atom 117H    basis set group =>   4
Atom 118C    basis set group =>   2
Atom 119C    basis set group =>   2
Atom 120C    basis set group =>   2
Atom 121H    basis set group =>   4
Atom 122C    basis set group =>   2
Atom 123H    basis set group =>   4
Atom 124C    basis set group =>   2
Atom 125H    basis set group =>   4
Atom 126C    basis set group =>   2
Atom 127H    basis set group =>   4
Atom 128H    basis set group =>   4
Atom 129H    basis set group =>   4
Atom 130H    basis set group =>   4
Atom 131N    basis set group =>   1
Atom 132C    basis set group =>   2
Atom 133C    basis set group =>   2
Atom 134O    basis set group =>   3
Atom 135C    basis set group =>   2
Atom 136H    basis set group =>   4
Atom 137H    basis set group =>   4
Atom 138C    basis set group =>   2
Atom 139H    basis set group =>   4
Atom 140H    basis set group =>   4
Atom 141C    basis set group =>   2
Atom 142O    basis set group =>   3
Atom 143O    basis set group =>   3
Atom 144H    basis set group =>   4
Atom 145H    basis set group =>   4
Atom 146N    basis set group =>   1
Atom 147C    basis set group =>   2
Atom 148C    basis set group =>   2
Atom 149O    basis set group =>   3
Atom 150C    basis set group =>   2
Atom 151C    basis set group =>   2
Atom 152O    basis set group =>   3
Atom 153H    basis set group =>   4
Atom 154H    basis set group =>   4
Atom 155H    basis set group =>   4
Atom 156H    basis set group =>   4
Atom 157H    basis set group =>   4
Atom 158H    basis set group =>   4
Atom 159H    basis set group =>   4
Atom 160O    basis set group =>   3
--------------------------------------------------------------------------
WARNING: No preset parameters were found for the device that Open MPI
detected:

  Local host:            c0703a-s22
  Device name:           mlx5_0
  Device vendor ID:      0x02c9
  Device vendor part ID: 4123

Default device parameters will be used, which may result in lower
performance.  You can edit any of the files specified by the
btl_openib_device_param_files MCA parameter to set values for your
device.

NOTE: You can turn off this warning by setting the MCA parameter
      btl_openib_warn_no_device_params_found to 0.
--------------------------------------------------------------------------
--------------------------------------------------------------------------
WARNING: There was an error initializing an OpenFabrics device.

  Local host:   c0703a-s22
  Local device: mlx5_0
--------------------------------------------------------------------------


           ************************************************************
           *        Program running with 15 parallel MPI-processes    *
           *              working on a common directory               *
           ************************************************************
------------------------------------------------------------------------------
                           ORCA GTO INTEGRAL CALCULATION
------------------------------------------------------------------------------

                         BASIS SET STATISTICS AND STARTUP INFO

 # of primitive gaussian shells          ...  999
 # of primitive gaussian functions       ... 1515
 # of contracted shells                  ...  333
 # of contracted basis functions         ...  505
 Highest angular momentum                ...    1
 Maximum contraction depth               ...    3
 Integral package used                   ... LIBINT
 Integral threshhold            Thresh   ...  1.000e-10
 Primitive cut-off              TCut     ...  1.000e-11


------------------------------ INTEGRAL EVALUATION ----------------------------


 * One electron integrals 
 Pre-screening matrix                    ... done
 Shell pair data                         ... done (   0.011 sec)

[c0703a-s22.ufhpc:44530] 14 more processes have sent help message help-mpi-btl-openib.txt / no device params found
[c0703a-s22.ufhpc:44530] Set MCA parameter "orte_base_help_aggregate" to 0 to see all help / error messages
[c0703a-s22.ufhpc:44530] 14 more processes have sent help message help-mpi-btl-openib.txt / error in device init
--------------------------------------------------------------------------
WARNING: No preset parameters were found for the device that Open MPI
detected:

  Local host:            c0703a-s22
  Device name:           mlx5_0
  Device vendor ID:      0x02c9
  Device vendor part ID: 4123

Default device parameters will be used, which may result in lower
performance.  You can edit any of the files specified by the
btl_openib_device_param_files MCA parameter to set values for your
device.

NOTE: You can turn off this warning by setting the MCA parameter
      btl_openib_warn_no_device_params_found to 0.
--------------------------------------------------------------------------
--------------------------------------------------------------------------
WARNING: There was an error initializing an OpenFabrics device.

  Local host:   c0703a-s22
  Local device: mlx5_0
--------------------------------------------------------------------------


           ************************************************************
           *        Program running with 15 parallel MPI-processes    *
           *              working on a common directory               *
           ************************************************************
-------------------------------------------------------------------------------
                                 ORCA SCF
-------------------------------------------------------------------------------

------------
SCF SETTINGS
------------
Hamiltonian:
 Ab initio Hamiltonian  Method          .... Hartree-Fock(GTOs)


General Settings:
 Integral files         IntName         .... HKTNTWWET
 Hartree-Fock type      HFTyp           .... RHF
 Total Charge           Charge          ....    0
 Multiplicity           Mult            ....    1
 Number of Electrons    NEL             ....  638
 Basis Dimension        Dim             ....  505
 Nuclear Repulsion      ENuc            ....  14221.3062080207 Eh

Convergence Acceleration:
 DIIS                   CNVDIIS         .... off
 Newton-Raphson         CNVNR           .... off
 SOSCF                  CNVSOSCF        .... off
 Level Shifting         CNVShift        .... off
 Zerner damping         CNVZerner       .... off
 Static damping         CNVDamp         .... off
 Fernandez-Rico         CNVRico         .... off

SCF Procedure:
 Maximum # iterations   MaxIter         .... 10000
 SCF integral mode      SCFMode         .... Direct
   Integral package                     .... LIBINT
 Reset frequency        DirectResetFreq ....    20
 Integral Threshold     Thresh          ....  1.000e-10 Eh
 Primitive CutOff       TCut            ....  1.000e-11 Eh

Convergence Tolerance:
 Convergence Check Mode ConvCheckMode   .... All-Criteria
 Convergence forced     ConvForced      .... 0
 Energy Change          TolE            ....  1.000e-06 Eh
 Max Density Change     TolMaxP         ....  1.000e-05
 RMS Density Change     TolRMSP         ....  1.000e-06


Diagonalization of the overlap matrix:
Smallest eigenvalue                        ... 1.723e-01
Time for diagonalization                   ...    0.616 sec
Threshold for overlap eigenvalues          ... 1.000e-08
Number of eigenvalues below threshold      ... 0
Time for construction of square roots      ...    0.083 sec
Total time needed                          ...    0.699 sec

--------------------------------
INITIAL GUESS: MINIMAL BASIS EHT
--------------------------------
The minimal basis has 505 functions
EHT matrix was diagonalized
Basis set overlap was calculated now projecting the orbitals
Using GuessMode=FMatrix for the initial guess
C*T matrix was formed
Effective Fockian was calculated
Effective Fockian was diagonalized
Initial density was built
                      ------------------
                      INITIAL GUESS DONE
                      ------------------

--------------------
CPCM SOLVATION MODEL
--------------------
CPCM parameters:
  Epsilon                                         ...      78.3550
  Refrac                                          ...       1.3300
  Rsolv                                           ...       1.3000
  Surface type                                    ...    GEPOL SES
  Epsilon function type                           ...         CPCM
Solvent:                                     ... WATER
SMD-CDS solvent descriptors:
  Soln                                       ...    1.3328
  Soln25                                     ...    1.3323
  Sola                                       ...    0.0000
  Solb                                       ...    0.0000
  Solg                                       ...    0.0000
  Solc                                       ...    0.0000
  Solh                                       ...    0.0000
Radii:
 Radius for N  used is    3.5716 Bohr (=   1.8900 Ang.)
 Radius for C  used is    3.4960 Bohr (=   1.8500 Ang.)
 Radius for O  used is    2.8724 Bohr (=   1.5200 Ang.)
 Radius for H  used is    2.2677 Bohr (=   1.2000 Ang.)
Calculating surface                               ...        [c0703a-s22.ufhpc:44689] 14 more processes have sent help message help-mpi-btl-openib.txt / no device params found
[c0703a-s22.ufhpc:44689] Set MCA parameter "orte_base_help_aggregate" to 0 to see all help / error messages
[c0703a-s22.ufhpc:44689] 14 more processes have sent help message help-mpi-btl-openib.txt / error in device init
done! (  0.9s)
GEPOL surface points                              ...         7630
GEPOL Volume                                      ...    8151.1760
GEPOL Surface-area                                ...    3980.0477
Calculating surface distance matrix               ...        done! (  0.6s)
Performing Cholesky decomposition & store         ...        done! (  5.1s)
Overall time for CPCM initialization              ...                 6.6s
--------------
SCF ITERATIONS
--------------
ITER       Energy         Delta-E        Max-DP      RMS-DP      [F,P]   Gradient Norm
               ***  Starting incremental Fock matrix formation  ***
                             ****Resetting KDIIS****
                             ****Turning on KDIIS(Cayley)****
  0  -4105.9887565086   0.000000000000 0.06245838  0.00112430  0.7733570   0.206944619
  1  -4107.2793748365  -1.290618327952 0.08842538  0.00160116  0.6996567   0.186284222
  2  -4108.9224030837  -1.643028247126 0.17115115  0.00287769  0.5635589   0.150621721
  3  -4110.9812176981  -2.058814614399 0.26249081  0.00446788  0.3403854   0.090943222
  4  -4112.1575654393  -1.176347741209 0.01381982  0.00025973  0.0059890   0.003262281
  5  -4112.1627066121  -0.005141172873 0.01152965  0.00023806  0.0026385   0.001521853
  6  -4112.1644434301  -0.001736817983 0.00362568  0.00004087  0.0007734   0.000412394
  7  -4112.1645353923  -0.000091962143 0.00223577  0.00002899  0.0005254   0.000203605
  8  -4112.1645669276  -0.000031535315 0.00097557  0.00000948  0.0001906   0.000054393
  9  -4112.1645699827  -0.000003055100 0.00037292  0.00000335  0.0001065   0.000025318
                          ***Energy convergence achieved***
 10  -4112.1645705151  -0.000000532426 0.00037189  0.00000290  0.0000479   0.000012699
                           ***RMSP convergence achieved***

            ***Energy convergence in two consecutive cycles with***
                    ***'reasonable' density convergence***
                       *** signaling convergence ***

                    *** KDIIS BlockDiag (81.702 sec) ***

               *****************************************************
               *                     SUCCESS                       *
               *           SCF CONVERGED AFTER  11 CYCLES          *
               *****************************************************


SMD CDS free energy correction energy :                23.67988     Kcal/mol
Total Energy after SMD CDS correction =             -4112.126834461 Eh

----------------
TOTAL SCF ENERGY
----------------

Total Energy       :        -4112.12683446 Eh         -111896.65988 eV

Components:
Nuclear Repulsion  :        14221.30620802 Eh          386981.41568 eV
Electronic Energy  :       -18333.43304248 Eh         -498878.07556 eV
One Electron Energy:       -33990.43650277 Eh         -924926.79961 eV
Two Electron Energy:        15657.00346029 Eh          426048.72405 eV
CPCM Dielectric    :           -0.65676896 Eh             -17.87159 eV
SMD CDS (Gcds)     :            0.03773629 Eh               1.02686 eV

Virial components:
Potential Energy   :        -8226.83947835 Eh         -223863.68322 eV
Kinetic Energy     :         4114.71264389 Eh          111967.02333 eV
Virial Ratio       :            1.99937157

CPCM Solvation Model Properties:
Surface-charge          :           -0.04646624
Charge-correction       :           -0.00019683 Eh              -0.00536 eV
Free-energy (cav+disp)  :            0.01411862 Eh               0.38419 eV
Corrected G(solv)       :        -4112.11291267 Eh         -111896.28105 eV

---------------
SCF CONVERGENCE
---------------

  Last Energy change         ...   -2.3410e-07  Tolerance :   1.0000e-06
  Last MAX-Density change    ...    5.7072e-05  Tolerance :   1.0000e-05
  Last RMS-Density change    ...    5.4863e-07  Tolerance :   1.0000e-06

             **** THE GBW FILE WAS UPDATED (HKTNTWWET.gbw) ****
             **** DENSITY FILE WAS UPDATED (HKTNTWWET.scfp) ****
             **** ENERGY FILE WAS UPDATED (HKTNTWWET.en.tmp) ****
             **** THE GBW FILE WAS UPDATED (HKTNTWWET.gbw) ****
             **** DENSITY FILE WAS UPDATED (HKTNTWWET.scfp) ****
----------------
ORBITAL ENERGIES
----------------

  NO   OCC          E(Eh)            E(eV) 
   0   2.0000     -20.311983      -552.7172 
   1   2.0000     -20.307526      -552.5959 
   2   2.0000     -20.305299      -552.5353 
   3   2.0000     -20.291119      -552.1494 
   4   2.0000     -20.277958      -551.7913 
   5   2.0000     -20.275112      -551.7138 
   6   2.0000     -20.270951      -551.6006 
   7   2.0000     -20.263904      -551.4089 
   8   2.0000     -20.259667      -551.2936 
   9   2.0000     -20.183538      -549.2220 
  10   2.0000     -20.180819      -549.1480 
  11   2.0000     -20.163281      -548.6708 
  12   2.0000     -20.151174      -548.3413 
  13   2.0000     -20.130605      -547.7816 
  14   2.0000     -20.048341      -545.5431 
  15   2.0000     -20.027602      -544.9788 
  16   2.0000     -15.629361      -425.2965 
  17   2.0000     -15.615465      -424.9184 
  18   2.0000     -15.504131      -421.8889 
  19   2.0000     -15.474312      -421.0774 
  20   2.0000     -15.473541      -421.0564 
  21   2.0000     -15.457748      -420.6267 
  22   2.0000     -15.454837      -420.5475 
  23   2.0000     -15.445601      -420.2962 
  24   2.0000     -15.442957      -420.2242 
  25   2.0000     -15.433447      -419.9654 
  26   2.0000     -15.431586      -419.9148 
  27   2.0000     -15.428067      -419.8190 
  28   2.0000     -15.424161      -419.7128 
  29   2.0000     -15.418526      -419.5594 
  30   2.0000     -15.389956      -418.7820 
  31   2.0000     -11.367027      -309.3125 
  32   2.0000     -11.366430      -309.2963 
  33   2.0000     -11.361300      -309.1567 
  34   2.0000     -11.345810      -308.7352 
  35   2.0000     -11.341721      -308.6239 
  36   2.0000     -11.339245      -308.5565 
  37   2.0000     -11.331676      -308.3506 
  38   2.0000     -11.325909      -308.1937 
  39   2.0000     -11.321943      -308.0857 
  40   2.0000     -11.300219      -307.4946 
  41   2.0000     -11.260636      -306.4175 
  42   2.0000     -11.257274      -306.3260 
  43   2.0000     -11.255181      -306.2690 
  44   2.0000     -11.246469      -306.0320 
  45   2.0000     -11.241274      -305.8906 
  46   2.0000     -11.239575      -305.8444 
  47   2.0000     -11.237481      -305.7874 
  48   2.0000     -11.236647      -305.7647 
  49   2.0000     -11.236209      -305.7528 
  50   2.0000     -11.235078      -305.7220 
  51   2.0000     -11.226456      -305.4874 
  52   2.0000     -11.222388      -305.3767 
  53   2.0000     -11.220135      -305.3154 
  54   2.0000     -11.219349      -305.2940 
  55   2.0000     -11.216805      -305.2248 
  56   2.0000     -11.215885      -305.1998 
  57   2.0000     -11.215662      -305.1937 
  58   2.0000     -11.204589      -304.8924 
  59   2.0000     -11.204509      -304.8902 
  60   2.0000     -11.197176      -304.6907 
  61   2.0000     -11.193693      -304.5959 
  62   2.0000     -11.191646      -304.5402 
  63   2.0000     -11.183466      -304.3176 
  64   2.0000     -11.174586      -304.0760 
  65   2.0000     -11.170005      -303.9513 
  66   2.0000     -11.169346      -303.9333 
  67   2.0000     -11.168755      -303.9173 
  68   2.0000     -11.168755      -303.9173 
  69   2.0000     -11.167833      -303.8922 
  70   2.0000     -11.167816      -303.8917 
  71   2.0000     -11.167192      -303.8747 
  72   2.0000     -11.166884      -303.8664 
  73   2.0000     -11.166767      -303.8632 
  74   2.0000     -11.166106      -303.8452 
  75   2.0000     -11.166041      -303.8434 
  76   2.0000     -11.165179      -303.8200 
  77   2.0000     -11.158581      -303.6404 
  78   2.0000     -11.158043      -303.6258 
  79   2.0000     -11.158034      -303.6255 
  80   2.0000     -11.150827      -303.4294 
  81   2.0000     -11.148419      -303.3639 
  82   2.0000     -11.141449      -303.1742 
  83   2.0000     -11.138392      -303.0911 
  84   2.0000     -11.131638      -302.9073 
  85   2.0000     -11.124253      -302.7063 
  86   2.0000      -1.450889       -39.4807 
  87   2.0000      -1.444297       -39.3013 
  88   2.0000      -1.430763       -38.9330 
  89   2.0000      -1.428458       -38.8703 
  90   2.0000      -1.402447       -38.1625 
  91   2.0000      -1.397453       -38.0266 
  92   2.0000      -1.390243       -37.8304 
  93   2.0000      -1.389387       -37.8071 
  94   2.0000      -1.381810       -37.6010 
  95   2.0000      -1.375564       -37.4310 
  96   2.0000      -1.358834       -36.9758 
  97   2.0000      -1.344275       -36.5796 
  98   2.0000      -1.318402       -35.8756 
  99   2.0000      -1.307796       -35.5869 
 100   2.0000      -1.303226       -35.4626 
[...]
 38 H      0.6120     1.0000     0.3880     0.8495     0.8495    -0.0000
 39 H      0.6095     1.0000     0.3905     0.8475     0.8475    -0.0000
 40 H      0.6991     1.0000     0.3009     0.9095     0.9095    -0.0000
 41 N      7.4026     7.0000    -0.4026     3.2480     3.2480    -0.0000
 42 C      6.0339     6.0000    -0.0339     3.9171     3.9171     0.0000
 43 C      5.5932     6.0000     0.4068     3.9117     3.9117    -0.0000
 44 O      8.4867     8.0000    -0.4867     1.9940     1.9940    -0.0000
 45 C      6.3731     6.0000    -0.3731     3.9464     3.9464    -0.0000
 46 C      5.9591     6.0000     0.0409     3.9381     3.9381    -0.0000
 47 O      8.6107     8.0000    -0.6107     1.7955     1.7955    -0.0000
 48 H      0.8643     1.0000     0.1357     0.9816     0.9816    -0.0000
 49 H      0.8704     1.0000     0.1296     0.9832     0.9832    -0.0000
 50 H      0.8787     1.0000     0.1213     0.9853     0.9853    -0.0000
 51 H      0.8653     1.0000     0.1347     0.9819     0.9819     0.0000
 52 H      0.8207     1.0000     0.1793     0.9678     0.9678    -0.0000
 53 H      0.6077     1.0000     0.3923     0.8461     0.8461    -0.0000
 54 H      0.6984     1.0000     0.3016     0.9091     0.9091     0.0000
 55 N      7.4074     7.0000    -0.4074     3.2313     3.2313     0.0000
 56 C      6.0066     6.0000    -0.0066     3.9245     3.9245    -0.0000
 57 C      5.5614     6.0000     0.4386     3.8871     3.8871     0.0000
 58 O      8.4922     8.0000    -0.4922     2.0785     2.0785     0.0000
 59 C      6.2655     6.0000    -0.2655     3.9356     3.9356    -0.0000
 60 H      0.8103     1.0000     0.1897     0.9640     0.9640    -0.0000
 61 H      0.8293     1.0000     0.1707     0.9709     0.9709    -0.0000
 62 C      5.5902     6.0000     0.4098     3.9048     3.9048    -0.0000
 63 O      8.5014     8.0000    -0.5014     1.9888     1.9888    -0.0000
 64 N      7.5175     7.0000    -0.5175     3.1520     3.1520    -0.0000
 65 H      0.7178     1.0000     0.2822     0.9204     0.9204     0.0000
 66 H      0.7187     1.0000     0.2813     0.9209     0.9209    -0.0000
 67 H      0.8121     1.0000     0.1879     0.9647     0.9647    -0.0000
 68 H      0.7053     1.0000     0.2947     0.9132     0.9132     0.0000
 69 N      7.4103     7.0000    -0.4103     3.2463     3.2463    -0.0000
 70 C      6.0362     6.0000    -0.0362     3.9216     3.9216     0.0000
 71 C      5.5982     6.0000     0.4018     3.9142     3.9142     0.0000
 72 O      8.4808     8.0000    -0.4808     1.9986     1.9986     0.0000
 73 C      6.3740     6.0000    -0.3740     3.9466     3.9466    -0.0000
 74 C      5.9591     6.0000     0.0409     3.9386     3.9386     0.0000
 75 O      8.6119     8.0000    -0.6119     1.7951     1.7951    -0.0000
 76 H      0.8664     1.0000     0.1336     0.9821     0.9821    -0.0000
 77 H      0.8719     1.0000     0.1281     0.9836     0.9836    -0.0000
 78 H      0.8762     1.0000     0.1238     0.9847     0.9847    -0.0000
 79 H      0.8671     1.0000     0.1329     0.9823     0.9823     0.0000
 80 H      0.8251     1.0000     0.1749     0.9694     0.9694     0.0000
 81 H      0.6087     1.0000     0.3913     0.8469     0.8469    -0.0000
 82 H      0.6826     1.0000     0.3174     0.8992     0.8992     0.0000
 83 N      7.4103     7.0000    -0.4103     3.2312     3.2312    -0.0000
 84 C      6.0129     6.0000    -0.0129     3.9252     3.9252    -0.0000
 85 C      5.5984     6.0000     0.4016     3.9106     3.9106    -0.0000
 86 O      8.4914     8.0000    -0.4914     1.9907     1.9907     0.0000
 87 C      6.2436     6.0000    -0.2436     3.9491     3.9491    -0.0000
 88 H      0.8592     1.0000     0.1408     0.9802     0.9802    -0.0000
 89 H      0.8374     1.0000     0.1626     0.9736     0.9736     0.0000
 90 C      6.0747     6.0000    -0.0747     3.9786     3.9786    -0.0000
 91 C      6.0110     6.0000    -0.0110     3.9203     3.9203     0.0000
 92 N      7.3847     7.0000    -0.3847     3.3575     3.3575     0.0000
 93 H      0.6933     1.0000     0.3067     0.9060     0.9060     0.0000
 94 C      5.9116     6.0000     0.0884     3.9561     3.9561    -0.0000
 95 C      6.0583     6.0000    -0.0583     3.9946     3.9946     0.0000
 96 C      6.1455     6.0000    -0.1455     3.9757     3.9757     0.0000
 97 H      0.8482     1.0000     0.1518     0.9769     0.9769    -0.0000
 98 C      6.1700     6.0000    -0.1700     3.9778     3.9778     0.0000
 99 H      0.8579     1.0000     0.1421     0.9798     0.9798     0.0000
100 C      6.1541     6.0000    -0.1541     3.9784     3.9784     0.0000
101 H      0.8542     1.0000     0.1458     0.9788     0.9788    -0.0000
102 C      6.1651     6.0000    -0.1651     3.9737     3.9737    -0.0000
103 H      0.8485     1.0000     0.1515     0.9771     0.9771     0.0000
104 H      0.8292     1.0000     0.1708     0.9708     0.9708     0.0000
105 H      0.7119     1.0000     0.2881     0.9170     0.9170    -0.0000
106 H      0.8286     1.0000     0.1714     0.9706     0.9706    -0.0000
107 N      7.4097     7.0000    -0.4097     3.2331     3.2331     0.0000
108 C      6.0132     6.0000    -0.0132     3.9271     3.9271    -0.0000
109 C      5.6005     6.0000     0.3995     3.9128     3.9128     0.0000
110 O      8.4863     8.0000    -0.4863     1.9934     1.9934    -0.0000
111 C      6.2451     6.0000    -0.2451     3.9491     3.9491    -0.0000
112 H      0.8590     1.0000     0.1410     0.9801     0.9801     0.0000
113 H      0.8368     1.0000     0.1632     0.9734     0.9734     0.0000
114 C      6.0736     6.0000    -0.0736     3.9803     3.9803    -0.0000
115 C      6.0197     6.0000    -0.0197     3.9204     3.9204    -0.0000
116 N      7.3854     7.0000    -0.3854     3.3573     3.3573     0.0000
117 H      0.6912     1.0000     0.3088     0.9046     0.9046    -0.0000
118 C      5.9108     6.0000     0.0892     3.9562     3.9562    -0.0000
119 C      6.0583     6.0000    -0.0583     3.9944     3.9944     0.0000
120 C      6.1445     6.0000    -0.1445     3.9755     3.9755    -0.0000
121 H      0.8477     1.0000     0.1523     0.9768     0.9768     0.0000
122 C      6.1697     6.0000    -0.1697     3.9777     3.9777    -0.0000
123 H      0.8574     1.0000     0.1426     0.9797     0.9797     0.0000
124 C      6.1533     6.0000    -0.1533     3.9783     3.9783    -0.0000
125 H      0.8537     1.0000     0.1463     0.9786     0.9786    -0.0000
126 C      6.1651     6.0000    -0.1651     3.9736     3.9736     0.0000
127 H      0.8483     1.0000     0.1517     0.9770     0.9770     0.0000
128 H      0.8289     1.0000     0.1711     0.9707     0.9707     0.0000
129 H      0.7087     1.0000     0.2913     0.9152     0.9152    -0.0000
130 H      0.8299     1.0000     0.1701     0.9711     0.9711    -0.0000
131 N      7.4126     7.0000    -0.4126     3.2342     3.2342     0.0000
132 C      6.0122     6.0000    -0.0122     3.9244     3.9244     0.0000
133 C      5.5677     6.0000     0.4323     3.8853     3.8853     0.0000
134 O      8.4970     8.0000    -0.4970     2.0751     2.0751    -0.0000
135 C      6.2279     6.0000    -0.2279     3.9485     3.9485    -0.0000
136 H      0.8481     1.0000     0.1519     0.9769     0.9769    -0.0000
137 H      0.8670     1.0000     0.1330     0.9823     0.9823     0.0000
138 C      6.2749     6.0000    -0.2749     3.9631     3.9631     0.0000
139 H      0.8799     1.0000     0.1201     0.9856     0.9856    -0.0000
140 H      0.8693     1.0000     0.1307     0.9829     0.9829    -0.0000
141 C      5.6334     6.0000     0.3666     3.9357     3.9357    -0.0000
142 O      8.6342     8.0000    -0.6342     1.8656     1.8656    -0.0000
143 O      8.6889     8.0000    -0.6889     1.7042     1.7042     0.0000
144 H      0.7105     1.0000     0.2895     0.9162     0.9162    -0.0000
145 H      0.8306     1.0000     0.1694     0.9713     0.9713    -0.0000
146 N      7.4089     7.0000    -0.4089     3.2540     3.2540     0.0000
147 C      6.0517     6.0000    -0.0517     3.9090     3.9090    -0.0000
148 C      5.6259     6.0000     0.3741     3.9339     3.9339     0.0000
149 O      8.6123     8.0000    -0.6123     1.8908     1.8908    -0.0000
150 C      6.3713     6.0000    -0.3713     3.9487     3.9487    -0.0000
151 C      5.9581     6.0000     0.0419     3.9408     3.9408    -0.0000
152 O      8.6215     8.0000    -0.6215     1.7916     1.7916    -0.0000
153 H      0.8795     1.0000     0.1205     0.9855     0.9855    -0.0000
154 H      0.8812     1.0000     0.1188     0.9859     0.9859    -0.0000
155 H      0.8663     1.0000     0.1337     0.9821     0.9821    -0.0000
156 H      0.8805     1.0000     0.1195     0.9857     0.9857    -0.0000
157 H      0.8515     1.0000     0.1485     0.9780     0.9780    -0.0000
158 H      0.6125     1.0000     0.3875     0.8498     0.8498    -0.0000
159 H      0.7108     1.0000     0.2892     0.9164     0.9164    -0.0000
160 O      8.6691     8.0000    -0.6691     1.7157     1.7157     0.0000

  Mayer bond orders larger than 0.100000
B(  0-N ,  1-C ) :   0.9145 B(  0-N , 15-H ) :   0.7806 B(  0-N , 17-H ) :   0.7873 
B(  0-N , 18-H ) :   0.8128 B(  1-C ,  2-C ) :   0.9502 B(  1-C ,  4-C ) :   0.9771 
B(  1-C , 16-H ) :   0.9245 B(  2-C ,  3-O ) :   1.7485 B(  2-C , 19-N ) :   1.1823 
B(  3-O , 19-N ) :   0.1483 B(  4-C ,  5-H ) :   0.9482 B(  4-C ,  6-H ) :   0.9436 
B(  4-C ,  7-C ) :   1.0190 B(  7-C ,  8-N ) :   1.1678 B(  7-C ,  9-C ) :   0.1135 
B(  7-C , 12-C ) :   1.5911 B(  8-N ,  9-C ) :   1.1982 B(  8-N , 14-H ) :   0.8741 
B(  9-C , 10-H ) :   0.9433 B(  9-C , 11-N ) :   1.5987 B( 11-N , 12-C ) :   1.2624 
B( 12-C , 13-H ) :   0.9589 B( 19-N , 20-C ) :   0.9660 B( 19-N , 40-H ) :   0.8741 
B( 20-C , 21-C ) :   0.9573 B( 20-C , 23-C ) :   0.9785 B( 20-C , 28-H ) :   0.9330 
B( 21-C , 22-O ) :   1.6399 B( 21-C , 41-N ) :   1.2222 B( 22-O , 41-N ) :   0.1408 
B( 22-O , 53-H ) :   0.1646 B( 23-C , 24-C ) :   1.0060 B( 23-C , 29-H ) :   0.9643 
B( 23-C , 30-H ) :   0.9462 B( 24-C , 25-C ) :   1.0043 B( 24-C , 31-H ) :   0.9641 
B( 24-C , 32-H ) :   0.9607 B( 25-C , 26-C ) :   1.0025 B( 25-C , 33-H ) :   0.9611 
B( 25-C , 34-H ) :   0.9611 B( 26-C , 27-N ) :   0.9002 B( 26-C , 35-H ) :   0.9481 
B( 26-C , 36-H ) :   0.9485 B( 27-N , 37-H ) :   0.8345 B( 27-N , 38-H ) :   0.8373 
B( 27-N , 39-H ) :   0.8351 B( 41-N , 42-C ) :   0.9554 B( 41-N , 54-H ) :   0.8750 
B( 42-C , 43-C ) :   0.9540 B( 42-C , 46-C ) :   0.9631 B( 42-C , 52-H ) :   0.9338 
B( 43-C , 44-O ) :   1.7348 B( 43-C , 55-N ) :   1.1836 B( 44-O , 55-N ) :   0.1517 
B( 45-C , 46-C ) :   0.9999 B( 45-C , 48-H ) :   0.9706 B( 45-C , 49-H ) :   0.9729 
B( 45-C , 50-H ) :   0.9697 B( 46-C , 47-O ) :   0.9872 B( 46-C , 51-H ) :   0.9493 
B( 47-O , 53-H ) :   0.6667 B( 55-N , 56-C ) :   0.9669 B( 55-N , 68-H ) :   0.8757 
B( 56-C , 57-C ) :   0.9548 B( 56-C , 59-C ) :   0.9877 B( 56-C , 67-H ) :   0.9292 
B( 57-C , 58-O ) :   1.6347 B( 57-C , 69-N ) :   1.2360 B( 58-O , 69-N ) :   0.1445 
B( 58-O , 81-H ) :   0.1637 B( 59-C , 60-H ) :   0.9316 B( 59-C , 61-H ) :   0.9478 
B( 59-C , 62-C ) :   0.9728 B( 62-C , 63-O ) :   1.7290 B( 62-C , 64-N ) :   1.1772 
B( 63-O , 64-N ) :   0.1530 B( 64-N , 65-H ) :   0.9014 B( 64-N , 66-H ) :   0.9012 
B( 69-N , 70-C ) :   0.9582 B( 69-N , 82-H ) :   0.8478 B( 70-C , 71-C ) :   0.9534 
B( 70-C , 74-C ) :   0.9637 B( 70-C , 80-H ) :   0.9354 B( 71-C , 72-O ) :   1.7374 
B( 71-C , 83-N ) :   1.1835 B( 72-O , 83-N ) :   0.1517 B( 73-C , 74-C ) :   1.0000 
B( 73-C , 76-H ) :   0.9712 B( 73-C , 77-H ) :   0.9733 B( 73-C , 78-H ) :   0.9696 
B( 74-C , 75-O ) :   0.9865 B( 74-C , 79-H ) :   0.9498 B( 75-O , 81-H ) :   0.6683 
B( 83-N , 84-C ) :   0.9615 B( 83-N ,105-H ) :   0.8803 B( 84-C , 85-C ) :   0.9526 
B( 84-C , 87-C ) :   0.9738 B( 84-C ,106-H ) :   0.9362 B( 85-C , 86-O ) :   1.7287 
B( 85-C ,107-N ) :   1.1886 B( 86-O ,107-N ) :   0.1513 B( 87-C , 88-H ) :   0.9624 
B( 87-C , 89-H ) :   0.9445 B( 87-C , 90-C ) :   1.0187 B( 90-C , 91-C ) :   1.6356 
B( 90-C , 95-C ) :   1.1884 B( 91-C , 92-N ) :   1.1609 B( 91-C ,104-H ) :   0.9546 
B( 92-N , 93-H ) :   0.8840 B( 92-N , 94-C ) :   1.1298 B( 94-C , 95-C ) :   1.3165 
B( 94-C ,102-C ) :   1.3352 B( 95-C , 96-C ) :   1.3286 B( 96-C , 97-H ) :   0.9575 
B( 96-C , 98-C ) :   1.5169 B( 96-C ,102-C ) :   0.1222 B( 98-C , 99-H ) :   0.9614 
B( 98-C ,100-C ) :   1.3798 B(100-C ,101-H ) :   0.9604 B(100-C ,102-C ) :   1.5096 
B(102-C ,103-H ) :   0.9598 B(107-N ,108-C ) :   0.9628 B(107-N ,129-H ) :   0.8784 
B(108-C ,109-C ) :   0.9523 B(108-C ,111-C ) :   0.9743 B(108-C ,130-H ) :   0.9366 
B(109-C ,110-O ) :   1.7334 B(109-C ,131-N ) :   1.1876 B(110-O ,131-N ) :   0.1555 
B(111-C ,112-H ) :   0.9623 B(111-C ,113-H ) :   0.9442 B(111-C ,114-C ) :   1.0187 
B(114-C ,115-C ) :   1.6341 B(114-C ,119-C ) :   1.1883 B(115-C ,116-N ) :   1.1597 
B(115-C ,128-H ) :   0.9543 B(116-N ,117-H ) :   0.8827 B(116-N ,118-C ) :   1.1308 
B(118-C ,119-C ) :   1.3171 B(118-C ,126-C ) :   1.3342 B(119-C ,120-C ) :   1.3282 
B(120-C ,121-H ) :   0.9573 B(120-C ,122-C ) :   1.5176 B(120-C ,126-C ) :   0.1225 
B(122-C ,123-H ) :   0.9613 B(122-C ,124-C ) :   1.3792 B(124-C ,125-H ) :   0.9603 
B(124-C ,126-C ) :   1.5104 B(126-C ,127-H ) :   0.9598 B(131-N ,132-C ) :   0.9643 
B(131-N ,144-H ) :   0.8754 B(132-C ,133-C ) :   0.9549 B(132-C ,135-C ) :   0.9791 
B(132-C ,145-H ) :   0.9344 B(133-C ,134-O ) :   1.6307 B(133-C ,146-N ) :   1.2366 
B(134-O ,146-N ) :   0.1438 B(134-O ,158-H ) :   0.1625 B(135-C ,136-H ) :   0.9558 
B(135-C ,137-H ) :   0.9635 B(135-C ,138-C ) :   1.0030 B(138-C ,139-H ) :   0.9618 
B(138-C ,140-H ) :   0.9656 B(138-C ,141-C ) :   0.9470 B(141-C ,142-O ) :   1.5654 
B(141-C ,143-O ) :   1.4146 B(142-O ,143-O ) :   0.2387 B(146-N ,147-C ) :   0.9409 
B(146-N ,159-H ) :   0.8803 B(147-C ,148-C ) :   0.9180 B(147-C ,151-C ) :   0.9697 
B(147-C ,157-H ) :   0.9452 B(148-C ,149-O ) :   1.5809 B(148-C ,160-O ) :   1.4198 
B(149-O ,160-O ) :   0.2335 B(150-C ,151-C ) :   1.0006 B(150-C ,153-H ) :   0.9746 
B(150-C ,154-H ) :   0.9757 B(150-C ,155-H ) :   0.9674 B(151-C ,152-O ) :   0.9806 
B(151-C ,156-H ) :   0.9531 B(152-O ,158-H ) :   0.6724 

-------
TIMINGS
-------

Total SCF time: 0 days 0 hours 1 min 23 sec 

Total time                  ....      83.324 sec
Sum of individual times     ....      74.112 sec  ( 88.9%)

Fock matrix formation       ....      68.656 sec  ( 82.4%)
Diagonalization             ....       2.234 sec  (  2.7%)
Density matrix formation    ....       0.060 sec  (  0.1%)
Population analysis         ....       0.195 sec  (  0.2%)
Initial guess               ....       2.967 sec  (  3.6%)
Orbital Transformation      ....       0.000 sec  (  0.0%)
Orbital Orthonormalization  ....       0.000 sec  (  0.0%)
DIIS solution               ....       0.000 sec  (  0.0%)


-------------------------------------------------------------------------------
                          DFT DISPERSION CORRECTION                            
                                                                               
                              DFTD3 V3.1  Rev 1                                
                          USING Becke-Johnson damping                          
-------------------------------------------------------------------------------
Hartree-Fock is recognized
Active option DFTDOPT                   ...         4   

molecular C6(AA) [au] = 250458.416510 


            DFT-D V3
 parameters
 using HF/MINIX parameters
 s6 scaling factor         :     1.0000 
 a1 scaling factor         :     0.4171 
 s8 scaling factor         :     0.8777 
 a2 scaling factor         :     2.9149 
 ad hoc parameters k1-k3   :    16.0000     1.3333    -4.0000 

 Edisp/kcal,au: -551.177532841649  -0.878357215037 
 E6   /kcal   : -314.175263052 
 E8   /kcal   : -237.002269790 
 % E8         :  42.999261702 

-------------------------   ----------------
Dispersion correction           -0.878357215
-------------------------   ----------------

------------------   -----------------
gCP+bas correction        -0.813186501
------------------   -----------------
----------------------------   ----------------
Total correction to HF/MINIX       -1.691543716
----------------------------   ----------------


-------------------------   --------------------
FINAL SINGLE POINT ENERGY     -4113.818378177751
-------------------------   --------------------


                            ***************************************
                            *     ORCA property calculations      *
                            ***************************************

                                    ---------------------
                                    Active property flags
                                    ---------------------
   (+) Dipole Moment


------------------------------------------------------------------------------
                       ORCA ELECTRIC PROPERTIES CALCULATION
------------------------------------------------------------------------------

Dipole Moment Calculation                       ... on
Quadrupole Moment Calculation                   ... off
Polarizability Calculation                      ... off
GBWName                                         ... HKTNTWWET.gbw
Electron density file                           ... HKTNTWWET.scfp
The origin for moment calculation is the CENTER OF MASS  = (26.012302, -0.238640 17.768690)

-------------
DIPOLE MOMENT
-------------
                                X             Y             Z
Electronic contribution:     11.92456       1.20294       8.53926
Nuclear contribution   :    -93.23145      -6.33787     -60.54996
                        -----------------------------------------
Total Dipole Moment    :    -81.30689      -5.13492     -52.01070
                        -----------------------------------------
Magnitude (a.u.)       :     96.65552
Magnitude (Debye)      :    245.67882



--------------------
Rotational spectrum 
--------------------
 
Rotational constants in cm-1:     0.001457     0.000157     0.000144 
Rotational constants in MHz :    43.687361     4.705013     4.317062 

 Dipole components along the rotational axes: 
x,y,z [a.u.] :    96.401757     5.924630     3.726973 
x,y,z [Debye]:   245.033793    15.059212     9.473213 

 
--------------------------------------------------------------------------
WARNING: No preset parameters were found for the device that Open MPI
detected:

  Local host:            c0703a-s22
  Device name:           mlx5_0
  Device vendor ID:      0x02c9
  Device vendor part ID: 4123

Default device parameters will be used, which may result in lower
performance.  You can edit any of the files specified by the
btl_openib_device_param_files MCA parameter to set values for your
device.

NOTE: You can turn off this warning by setting the MCA parameter
      btl_openib_warn_no_device_params_found to 0.
--------------------------------------------------------------------------
--------------------------------------------------------------------------
WARNING: There was an error initializing an OpenFabrics device.

  Local host:   c0703a-s22
  Local device: mlx5_0
--------------------------------------------------------------------------
[c0703a-s22.ufhpc:44903] 14 more processes have sent help message help-mpi-btl-openib.txt / no device params found
[c0703a-s22.ufhpc:44903] Set MCA parameter "orte_base_help_aggregate" to 0 to see all help / error messages
[c0703a-s22.ufhpc:44903] 14 more processes have sent help message help-mpi-btl-openib.txt / error in device init

Timings for individual modules:

Sum of individual times         ...       87.232 sec (=   1.454 min)
GTO integral calculation        ...        2.730 sec (=   0.045 min)   3.1 %
SCF iterations                  ...       84.502 sec (=   1.408 min)  96.9 %
                             ****ORCA TERMINATED NORMALLY****
TOTAL RUN TIME: 0 days 0 hours 1 minutes 28 seconds 931 msec
