/home/zfg2013/blue_zfg2013/INPS
c24b-s39.ufhpc
Sat Aug  5 17:17:44 EDT 2023

                                 *****************
                                 * O   R   C   A *
                                 *****************

           --- An Ab Initio, DFT and Semiempirical electronic structure package ---

                  #######################################################
                  #                        -***-                        #
                  #          Department of theory and spectroscopy      #
                  #               Directorship: Frank Neese             #
                  #        Max Planck Institute fuer Kohlenforschung    #
                  #                Kaiser Wilhelm Platz 1               #
                  #                 D-45470 Muelheim/Ruhr               #
                  #                      Germany                        #
                  #                                                     #
                  #                  All rights reserved                #
                  #                        -***-                        #
                  #######################################################


                         Program Version 4.2.1 -  RELEASE  -


 With contributions from (in alphabetic order):
   Daniel Aravena         : Magnetic Suceptibility
   Michael Atanasov       : Ab Initio Ligand Field Theory (pilot matlab implementation)
   Alexander A. Auer      : GIAO ZORA, VPT2
   Ute Becker             : Parallelization
   Giovanni Bistoni       : ED, misc. LED, open-shell LED, HFLD
   Martin Brehm           : Molecular dynamics
   Dmytro Bykov           : SCF Hessian
   Vijay G. Chilkuri      : MRCI spin determinant printing, contributions to CSF-ICE
   Dipayan Datta          : RHF DLPNO-CCSD density
   Achintya Kumar Dutta   : EOM-CC, STEOM-CC
   Dmitry Ganyushin       : Spin-Orbit,Spin-Spin,Magnetic field MRCI
   Miquel Garcia          : C-PCM Hessian, Gaussian charge scheme
   Yang Guo               : DLPNO-NEVPT2, CIM, IAO-localization
   Andreas Hansen         : Spin unrestricted coupled pair/coupled cluster methods
   Benjamin Helmich-Paris : CASSCF linear response (MC-RPA)
   Lee Huntington         : MR-EOM, pCC
   Robert Izsak           : Overlap fitted RIJCOSX, COSX-SCS-MP3, EOM
   Christian Kollmar      : KDIIS, OOCD, Brueckner-CCSD(T), CCSD density
   Simone Kossmann        : Meta GGA functionals, TD-DFT gradient, OOMP2, MP2 Hessian
   Martin Krupicka        : AUTO-CI
   Lucas Lang             : DCDCAS
   Dagmar Lenk            : GEPOL surface, SMD
   Dimitrios Liakos       : Extrapolation schemes; Compound Job, initial MDCI parallelization
   Dimitrios Manganas     : Further ROCIS development; embedding schemes
   Dimitrios Pantazis     : SARC Basis sets
   Taras Petrenko         : DFT Hessian,TD-DFT gradient, ASA, ECA, R-Raman, ABS, FL, XAS/XES, NRVS
   Peter Pinski           : DLPNO-MP2, DLPNO-MP2 Gradient
   Christoph Reimann      : Effective Core Potentials
   Marius Retegan         : Local ZFS, SOC
   Christoph Riplinger    : Optimizer, TS searches, QM/MM, DLPNO-CCSD(T), (RO)-DLPNO pert. Triples
   Tobias Risthaus        : Range-separated hybrids, TD-DFT gradient, RPA, STAB
   Michael Roemelt        : Original ROCIS implementation
   Masaaki Saitow         : Open-shell DLPNO-CCSD energy and density
   Barbara Sandhoefer     : DKH picture change effects
   Avijit Sen             : IP-ROCIS
   Kantharuban Sivalingam : CASSCF convergence, NEVPT2, FIC-MRCI
   Bernardo de Souza      : ESD, SOC TD-DFT
   Georgi Stoychev        : AutoAux, RI-MP2 NMR
   Willem Van den Heuvel  : Paramagnetic NMR
   Boris Wezisla          : Elementary symmetry handling
   Frank Wennmohs         : Technical directorship


 We gratefully acknowledge several colleagues who have allowed us to
 interface, adapt or use parts of their codes:
   Stefan Grimme, W. Hujo, H. Kruse,             : VdW corrections, initial TS optimization,
                  C. Bannwarth                     DFT functionals, gCP, sTDA/sTD-DF
   Ed Valeev, F. Pavosevic, A. Kumar             : LibInt (2-el integral package), F12 methods
   Garnet Chan, S. Sharma, J. Yang, R. Olivares  : DMRG
   Ulf Ekstrom                                   : XCFun DFT Library
   Mihaly Kallay                                 : mrcc  (arbitrary order and MRCC methods)
   Andreas Klamt, Michael Diedenhofen            : otool_cosmo (COSMO solvation model)
   Jiri Pittner, Ondrej Demel                    : Mk-CCSD
   Frank Weinhold                                : gennbo (NPA and NBO analysis)
   Christopher J. Cramer and Donald G. Truhlar   : smd solvation model
   Lars Goerigk                                  : TD-DFT with DH, B97 family of functionals
   V. Asgeirsson, H. Jonsson                     : NEB implementation
   FAccTs GmbH                                   : IRC, NEB, NEB-TS, Multilevel, MM, QM/MM, CI optimization
   S Lehtola, MJT Oliveira, MAL Marques          : LibXC Library


 Your calculation uses the libint2 library for the computation of 2-el integrals
 For citations please refer to: http://libint.valeyev.net

 Your ORCA version has been built with support for libXC version: 4.2.3
 For citations please refer to: https://tddft.org/programs/libxc/

 This ORCA versions uses:
   CBLAS   interface :  Fast vector & matrix operations
   LAPACKE interface :  Fast linear algebra routines
   SCALAPACK package :  Parallel linear algebra routines


Your calculation utilizes the geometrical counterpoise correction gCP
Please cite in your paper:
H.Kruse, S. Grimme J.Chem.Phys., 136, (2012), 154101 
   

Your calculation utilizes the atom-pairwise dispersion correction
with the Becke-Johnson damping scheme (D3BJ)
Cite in your paper:
S.Grimme, S.Ehrlich, L.Goerigk, J Comput Chem, (2011), 32, 1456–1465 
S.Grimme, J.Antony, S.Ehrlich and H.Krieg, J.Chem.Phys., 132, (2010), 154104 
   

Your calculation utilizes the SMD solvation module
Please cite in your paper:
A.V. Marenich, C.J. Cramer, D.G. Truhlar J. Phys. Chem. B, 113, (2009), 6378 

----- Orbital basis set information -----
Your calculation utilizes the basis: MINIX,
   a combination of small basis sets by S. Grimme (see manual for definitions).

================================================================================
                                        WARNINGS
                       Please study these warnings very carefully!
================================================================================


WARNING: your system is open-shell and RHF/RKS was chosen
  ===> : WILL SWITCH to UHF/UKS


INFO   : the flag for use of LIBINT has been found!

================================================================================
                                       INPUT FILE
================================================================================
NAME = NHIPIRITY.inp
|  1> !HF-3c CPCM KDIIS SmallPrint
|  2> %PAL NPROCS 15 END
|  3> %maxcore 10000
|  4> %CPCM
|  5> SMD TRUE
|  6> SMDSOLVENT "WATER"
|  7> END
|  8> 
|  9> %scf
| 10> SCFmode Direct
| 11> maxiter 10000
| 12> 
| 13> end
| 14> 
| 15> %geom
| 16> 
| 17> Constraints
| 18> {C 2 C}
| 19> {C 18 C}
| 20> {C 35 C}
| 21> {C 54 C}
| 22> {C 68 C}
| 23> {C 87 C}
| 24> {C 111 C}
| 25> {C 130 C}
| 26> {C 144 C}
| 27> 
| 28> end
| 29> 
| 30> maxiter 10000
| 31> 
| 32> end
| 33> 
| 34> * xyz 0 2
| 35>    N        0.00000         0.00000         0.00000
| 36>    C        1.46515         0.00000         0.00000
| 37>    C        1.88555         0.00000         1.48240
| 38>    O        1.07154         0.00000         2.40676
| 39>    C        2.01415         1.23159         -0.71954
| 40>    H        1.51992         1.35855         -1.69041
| 41>    H        1.82648         2.13774         -0.13052
| 42>    C        3.49711         1.12629         -0.98536
| 43>    O        4.18749         0.15036         -0.71270
| 44>    N        4.05051         2.24202         -1.54040
| 45>    H        3.50331         3.03572         -1.84520
| 46>    H        5.03756         2.22334         -1.76437
| 47>    H        1.80175         -0.93156         -0.47038
| 48>    H        -0.46110         0.20328         0.88392
| 49>    H        -0.34000         0.08381         -0.95801
| 50>    H        -0.34000         0.94706         -0.16699
| 51>    N        3.18479         -0.00000         1.81037
| 52>    C        3.58352         0.00022         3.21638
| 53>    C        5.11710         0.00017         3.28694
| 54>    O        5.83557         -0.00003         2.28960
| 55>    C        3.00283         -1.20299         3.98689
| 56>    H        3.80033         -1.84964         4.37377
| 57>    H        2.39740         -1.83798         3.32688
| 58>    C        2.14589         -0.76394         5.12580
| 59>    N        0.95948         -0.09244         4.94011
| 60>    C        0.45348         0.18949         6.17567
| 61>    H        -0.47214         0.73207         6.31326
| 62>    N        1.22687         -0.27412         7.13152
| 63>    C        2.27286         -0.88404         6.49116
| 64>    H        3.06444         -1.36752         7.04967
| 65>    H        0.56090         0.17705         4.04283
| 66>    H        3.92014         -0.13446         1.12037
| 67>    H        3.24566         0.95812         3.63356
| 68>    N        5.73306         0.00034         4.47698
| 69>    C        7.19177         0.00007         4.54409
| 70>    C        7.56498         0.00037         6.03901
| 71>    O        6.72847         0.00076         6.94061
| 72>    C        7.80482         1.17871         3.74351
| 73>    C        9.34283         1.08159         3.67202
| 74>    C        9.95917         1.99212         2.61746
| 75>    H        7.53334         -0.94836         4.10959
| 76>    C        7.35514         2.54343         4.28435
| 77>    H        9.63244         0.05036         3.43666
| 78>    H        9.78646         1.32774         4.64356
| 79>    H        9.79211         3.04832         2.84609
| 80>    H        9.54522         1.78090         1.62656
| 81>    H        11.04137         1.83191         2.57219
| 82>    H        5.23332         0.39075         5.27101
| 83>    H        7.42299         1.10328         2.71587
| 84>    H        7.68339         3.35525         3.62801
| 85>    H        7.76188         2.73467         5.28245
| 86>    H        6.26388         2.60854         4.34339
| 87>    N        8.85318         0.00021         6.40797
| 88>    C        9.20577         0.00071         7.82031
| 89>    C        10.73136         0.00043         8.04213
| 90>    O        11.56835         -0.00015         7.14558
| 91>    H        8.79527         0.89724         8.29893
| 92>    C        8.30799         -1.26804         5.97391
| 93>    H        7.23303         -1.13794         5.80761
| 94>    H        8.77579         -1.58937         5.03861
| 95>    C        8.58379         -2.21076         7.13549
| 96>    H        9.57944         -2.65804         7.02900
| 97>    H        7.85152         -3.01997         7.20301
| 98>    C        8.56197         -1.28308         8.35073
| 99>    H        9.07295         -1.72309         9.21176
|100>    H        7.52091         -1.08515         8.63476
|101>    N        11.22742         0.00082         9.28693
|102>    C        12.67248         0.00034         9.49703
|103>    C        12.89701         0.00098         11.02138
|104>    O        11.97597         0.00175         11.83643
|105>    C        13.36144         1.17867         8.76024
|106>    C        14.89901         1.08127         8.84023
|107>    C        15.61615         1.99142         7.85110
|108>    H        13.05491         -0.94827         9.09842
|109>    C        12.86105         2.54360         9.25395
|110>    H        15.21015         0.04993         8.63473
|111>    H        15.24509         1.32762         9.85059
|112>    H        15.42763         3.04771         8.06194
|113>    H        15.30151         1.78000         6.82438
|114>    H        16.69753         1.83102         7.91241
|115>    H        10.65216         0.39152         10.02791
|116>    H        13.08240         1.10301         7.70008
|117>    H        13.25235         3.35519         8.63283
|118>    H        13.16780         2.73504         10.28713
|119>    H        11.76928         2.60890         9.20547
|120>    N        14.14273         0.00071         11.51512
|121>    C        14.35549         0.00154         12.95957
|122>    C        15.88031         0.00096         13.17206
|123>    O        16.68432         -0.00002         12.24101
|124>    C        13.68424         -1.22033         13.60421
|125>    H        14.24475         -2.13121         13.35633
|126>    H        12.68137         -1.35198         13.17876
|127>    C        13.55019         -1.10441         15.12257
|128>    H        13.10036         -0.13994         15.38873
|129>    H        14.53840         -1.13490         15.59350
|130>    C        12.69506         -2.23005         15.69531
|131>    H        13.13063         -3.20834         15.46791
|132>    H        11.68435         -2.19130         15.27870
|133>    N        12.65181         -2.07675         17.14948
|134>    H        13.52733         -1.87285         17.62483
|135>    C        11.54268         -2.20695         17.91981
|136>    N        11.40906         -2.10032         19.21405
|137>    H        10.88272         -2.11733         20.09788
|138>    H        12.22544         -1.87917         19.79978
|139>    N        10.35117         -2.48395         17.58345
|140>    H        10.09694         -2.65350         16.62750
|141>    H        9.66019         -2.53279         18.31643
|142>    H        14.92955         -0.26929         10.92977
|143>    H        13.93635         0.93355         13.35698
|144>    N        16.38372         0.00152         14.41390
|145>    C        17.83000         0.00074         14.61545
|146>    C        18.06354         0.00168         16.13845
|147>    O        17.14735         0.00284         16.95893
|148>    C        18.51486         1.17875         13.87434
|149>    C        20.05285         1.08102         13.94525
|150>    C        20.76433         1.99078         12.95169
|151>    H        18.20985         -0.94804         14.21481
|152>    C        18.01771         2.54391         14.37069
|153>    H        20.36253         0.04956         13.73814
|154>    H        20.40496         1.32751         14.95349
|155>    H        20.57731         3.04716         13.16340
|156>    H        20.44358         1.77921         11.92689
|157>    H        21.84603         1.83015         13.00664
|158>    H        15.81295         0.39252         15.15819
|159>    H        18.22954         1.10292         12.81587
|160>    H        18.40552         3.35527         13.74708
|161>    H        18.33061         2.73551         15.40199
|162>    H        16.92569         2.60945         14.32865
|163>    N        19.31216         0.00123         16.62481
|164>    C        19.53431         0.00234         18.07350
|165>    C        21.05852         0.00145         18.26804
|166>    O        21.85359         0.00007         17.32952
|167>    C        18.84094         -1.08004         20.29003
|168>    C        18.88195         -1.21688         18.77135
|169>    O        17.52532         -1.42806         18.35282
|170>    H        18.27889         -1.90996         20.73308
|171>    H        18.32273         -0.16052         20.58412
|172>    H        19.84029         -1.07788         20.73131
|173>    H        19.43034         -2.13041         18.51342
|174>    H        19.11420         0.93705         18.46418
|175>    H        17.16346         -0.57702         18.02706
|176>    H        20.05378         -0.37459         16.03967
|177>    N        21.57621         0.00216         19.50400
|178>    C        23.02611         0.00109         19.68906
|179>    C        23.27678         0.00230         21.20667
|180>    O        22.36661         0.00386         22.03491
|181>    C        23.67483         1.22466         19.02058
|182>    H        23.17371         1.45627         18.07121
|183>    H        23.53686         2.11776         19.64452
|184>    C        25.14373         1.03125         18.72101
|185>    C        26.12553         1.63055         19.52150
|186>    H        25.84602         2.26154         20.36283
|187>    C        27.47821         1.42084         19.25116
|188>    H        28.23953         1.88301         19.87325
|189>    C        27.85119         0.62394         18.17537
|190>    C        26.89265         0.02872         17.36286
|191>    H        27.17459         -0.59016         16.51668
|192>    C        25.53896         0.23128         17.63783
|193>    H        24.78883         -0.23382         16.99830
|194>    O        29.18377         0.44946         17.94707
|195>    H        29.29229         -0.07763         17.13826
|196>    H        23.40880         -0.93878         19.27261
|197>    H        21.00416         0.27346         20.29960
|198>    O        24.56621         0.00158         21.60984
|199> *
|200> 
|201>                          ****END OF INPUT****
================================================================================

                       ****************************
                       * Single Point Calculation *
                       ****************************

---------------------------------
CARTESIAN COORDINATES (ANGSTROEM)
---------------------------------
  N      0.000000    0.000000    0.000000
  C      1.465150    0.000000    0.000000
  C      1.885550    0.000000    1.482400
  O      1.071540    0.000000    2.406760
  C      2.014150    1.231590   -0.719540
  H      1.519920    1.358550   -1.690410
  H      1.826480    2.137740   -0.130520
  C      3.497110    1.126290   -0.985360
  O      4.187490    0.150360   -0.712700
  N      4.050510    2.242020   -1.540400
  H      3.503310    3.035720   -1.845200
  H      5.037560    2.223340   -1.764370
  H      1.801750   -0.931560   -0.470380
  H     -0.461100    0.203280    0.883920
  H     -0.340000    0.083810   -0.958010
  H     -0.340000    0.947060   -0.166990
  N      3.184790   -0.000000    1.810370
  C      3.583520    0.000220    3.216380
  C      5.117100    0.000170    3.286940
  O      5.835570   -0.000030    2.289600
  C      3.002830   -1.202990    3.986890
  H      3.800330   -1.849640    4.373770
  H      2.397400   -1.837980    3.326880
  C      2.145890   -0.763940    5.125800
  N      0.959480   -0.092440    4.940110
  C      0.453480    0.189490    6.175670
  H     -0.472140    0.732070    6.313260
  N      1.226870   -0.274120    7.131520
  C      2.272860   -0.884040    6.491160
  H      3.064440   -1.367520    7.049670
  H      0.560900    0.177050    4.042830
  H      3.920140   -0.134460    1.120370
  H      3.245660    0.958120    3.633560
  N      5.733060    0.000340    4.476980
  C      7.191770    0.000070    4.544090
  C      7.564980    0.000370    6.039010
  O      6.728470    0.000760    6.940610
  C      7.804820    1.178710    3.743510
  C      9.342830    1.081590    3.672020
  C      9.959170    1.992120    2.617460
  H      7.533340   -0.948360    4.109590
  C      7.355140    2.543430    4.284350
  H      9.632440    0.050360    3.436660
  H      9.786460    1.327740    4.643560
  H      9.792110    3.048320    2.846090
  H      9.545220    1.780900    1.626560
  H     11.041370    1.831910    2.572190
  H      5.233320    0.390750    5.271010
  H      7.422990    1.103280    2.715870
  H      7.683390    3.355250    3.628010
  H      7.761880    2.734670    5.282450
  H      6.263880    2.608540    4.343390
  N      8.853180    0.000210    6.407970
  C      9.205770    0.000710    7.820310
  C     10.731360    0.000430    8.042130
  O     11.568350   -0.000150    7.145580
  H      8.795270    0.897240    8.298930
  C      8.307990   -1.268040    5.973910
  H      7.233030   -1.137940    5.807610
  H      8.775790   -1.589370    5.038610
  C      8.583790   -2.210760    7.135490
  H      9.579440   -2.658040    7.029000
  H      7.851520   -3.019970    7.203010
  C      8.561970   -1.283080    8.350730
  H      9.072950   -1.723090    9.211760
  H      7.520910   -1.085150    8.634760
  N     11.227420    0.000820    9.286930
  C     12.672480    0.000340    9.497030
  C     12.897010    0.000980   11.021380
  O     11.975970    0.001750   11.836430
  C     13.361440    1.178670    8.760240
  C     14.899010    1.081270    8.840230
  C     15.616150    1.991420    7.851100
  H     13.054910   -0.948270    9.098420
  C     12.861050    2.543600    9.253950
  H     15.210150    0.049930    8.634730
  H     15.245090    1.327620    9.850590
  H     15.427630    3.047710    8.061940
  H     15.301510    1.780000    6.824380
  H     16.697530    1.831020    7.912410
  H     10.652160    0.391520   10.027910
  H     13.082400    1.103010    7.700080
  H     13.252350    3.355190    8.632830
  H     13.167800    2.735040   10.287130
  H     11.769280    2.608900    9.205470
  N     14.142730    0.000710   11.515120
  C     14.355490    0.001540   12.959570
  C     15.880310    0.000960   13.172060
  O     16.684320   -0.000020   12.241010
  C     13.684240   -1.220330   13.604210
  H     14.244750   -2.131210   13.356330
  H     12.681370   -1.351980   13.178760
  C     13.550190   -1.104410   15.122570
  H     13.100360   -0.139940   15.388730
  H     14.538400   -1.134900   15.593500
  C     12.695060   -2.230050   15.695310
  H     13.130630   -3.208340   15.467910
  H     11.684350   -2.191300   15.278700
  N     12.651810   -2.076750   17.149480
  H     13.527330   -1.872850   17.624830
  C     11.542680   -2.206950   17.919810
  N     11.409060   -2.100320   19.214050
  H     10.882720   -2.117330   20.097880
  H     12.225440   -1.879170   19.799780
  N     10.351170   -2.483950   17.583450
  H     10.096940   -2.653500   16.627500
  H      9.660190   -2.532790   18.316430
  H     14.929550   -0.269290   10.929770
  H     13.936350    0.933550   13.356980
  N     16.383720    0.001520   14.413900
  C     17.830000    0.000740   14.615450
  C     18.063540    0.001680   16.138450
  O     17.147350    0.002840   16.958930
  C     18.514860    1.178750   13.874340
  C     20.052850    1.081020   13.945250
  C     20.764330    1.990780   12.951690
  H     18.209850   -0.948040   14.214810
  C     18.017710    2.543910   14.370690
  H     20.362530    0.049560   13.738140
  H     20.404960    1.327510   14.953490
  H     20.577310    3.047160   13.163400
  H     20.443580    1.779210   11.926890
  H     21.846030    1.830150   13.006640
  H     15.812950    0.392520   15.158190
  H     18.229540    1.102920   12.815870
  H     18.405520    3.355270   13.747080
  H     18.330610    2.735510   15.401990
  H     16.925690    2.609450   14.328650
  N     19.312160    0.001230   16.624810
  C     19.534310    0.002340   18.073500
  C     21.058520    0.001450   18.268040
  O     21.853590    0.000070   17.329520
  C     18.840940   -1.080040   20.290030
  C     18.881950   -1.216880   18.771350
  O     17.525320   -1.428060   18.352820
  H     18.278890   -1.909960   20.733080
  H     18.322730   -0.160520   20.584120
  H     19.840290   -1.077880   20.731310
  H     19.430340   -2.130410   18.513420
  H     19.114200    0.937050   18.464180
  H     17.163460   -0.577020   18.027060
  H     20.053780   -0.374590   16.039670
  N     21.576210    0.002160   19.504000
  C     23.026110    0.001090   19.689060
  C     23.276780    0.002300   21.206670
  O     22.366610    0.003860   22.034910
  C     23.674830    1.224660   19.020580
  H     23.173710    1.456270   18.071210
  H     23.536860    2.117760   19.644520
  C     25.143730    1.031250   18.721010
  C     26.125530    1.630550   19.521500
  H     25.846020    2.261540   20.362830
  C     27.478210    1.420840   19.251160
  H     28.239530    1.883010   19.873250
  C     27.851190    0.623940   18.175370
  C     26.892650    0.028720   17.362860
  H     27.174590   -0.590160   16.516680
  C     25.538960    0.231280   17.637830
  H     24.788830   -0.233820   16.998300
  O     29.183770    0.449460   17.947070
  H     29.292290   -0.077630   17.138260
  H     23.408800   -0.938780   19.272610
  H     21.004160    0.273460   20.299600
  O     24.566210    0.001580   21.609840

----------------------------
CARTESIAN COORDINATES (A.U.)
----------------------------
  NO LB      ZA    FRAG     MASS         X           Y           Z
   0 N     7.0000    0    14.007    0.000000    0.000000    0.000000
   1 C     6.0000    0    12.011    2.768732    0.000000    0.000000
   2 C     6.0000    0    12.011    3.563173    0.000000    2.801330
   3 O     8.0000    0    15.999    2.024917    0.000000    4.548117
   4 C     6.0000    0    12.011    3.806192    2.327368   -1.359734
   5 H     1.0000    0     1.008    2.872233    2.567287   -3.194412
   6 H     1.0000    0     1.008    3.451547    4.039743   -0.246647
   7 C     6.0000    0    12.011    6.608580    2.128380   -1.862061
   8 O     8.0000    0    15.999    7.913209    0.284139   -1.346808
   9 N     7.0000    0    14.007    7.654355    4.236804   -2.910934
  10 H     1.0000    0     1.008    6.620296    5.736679   -3.486923
  11 H     1.0000    0     1.008    9.519609    4.201504   -3.334176
  12 H     1.0000    0     1.008    3.404814   -1.760393   -0.888889
  13 H     1.0000    0     1.008   -0.871353    0.384144    1.670367
  14 H     1.0000    0     1.008   -0.642507    0.158378   -1.810377
  15 H     1.0000    0     1.008   -0.642507    1.789684   -0.315565
  16 N     7.0000    0    14.007    6.018381   -0.000000    3.421104
  17 C     6.0000    0    12.011    6.771871    0.000416    6.078077
  18 C     6.0000    0    12.011    9.669918    0.000321    6.211416
  19 O     8.0000    0    15.999   11.027629   -0.000057    4.326717
  20 C     6.0000    0    12.011    5.674526   -2.273322    7.534130
  21 H     1.0000    0     1.008    7.181583   -3.495313    8.265227
  22 H     1.0000    0     1.008    4.530429   -3.473279    6.286892
  23 C     6.0000    0    12.011    4.055144   -1.443637    9.686358
  24 N     7.0000    0    14.007    1.813154   -0.174686    9.335455
  25 C     6.0000    0    12.011    0.856953    0.358084   11.670325
  26 H     1.0000    0     1.008   -0.892215    1.383412   11.930332
  27 N     7.0000    0    14.007    2.318448   -0.518012   13.476620
  28 C     6.0000    0    12.011    4.295083   -1.670593   12.266515
  29 H     1.0000    0     1.008    5.790952   -2.584238   13.321946
  30 H     1.0000    0     1.008    1.059947    0.334576    7.639842
  31 H     1.0000    0     1.008    7.407991   -0.254093    2.117192
  32 H     1.0000    0     1.008    6.133409    1.810584    6.866433
  33 N     7.0000    0    14.007   10.833913    0.000643    8.460266
  34 C     6.0000    0    12.011   13.590476    0.000132    8.587086
  35 C     6.0000    0    12.011   14.295740    0.000699   11.412075
  36 O     8.0000    0    15.999   12.714966    0.001436   13.115852
  37 C     6.0000    0    12.011   14.748972    2.227439    7.074209
  38 C     6.0000    0    12.011   17.655390    2.043909    6.939112
  39 C     6.0000    0    12.011   18.820104    3.764561    4.946283
  40 H     1.0000    0     1.008   14.235949   -1.792141    7.766000
  41 C     6.0000    0    12.011   13.899200    4.806386    8.096248
  42 H     1.0000    0     1.008   18.202674    0.095167    6.494346
  43 H     1.0000    0     1.008   18.493729    2.509065    8.775057
  44 H     1.0000    0     1.008   18.504406    5.760490    5.378331
  45 H     1.0000    0     1.008   18.037852    3.365413    3.073753
  46 H     1.0000    0     1.008   20.865165    3.461808    4.860735
  47 H     1.0000    0     1.008    9.889542    0.738410    9.960765
  48 H     1.0000    0     1.008   14.027418    2.084897    5.132251
  49 H     1.0000    0     1.008   14.519503    6.340504    6.855945
  50 H     1.0000    0     1.008   14.667827    5.167777    9.982384
  51 H     1.0000    0     1.008   11.837018    4.929426    8.207818
  52 N     7.0000    0    14.007   16.730086    0.000397   12.109308
  53 C     6.0000    0    12.011   17.396384    0.001342   14.778244
  54 C     6.0000    0    12.011   20.279331    0.000813   15.197423
  55 O     8.0000    0    15.999   21.861013   -0.000283   13.503189
  56 H     1.0000    0     1.008   16.620652    1.695538   15.682705
  57 C     6.0000    0    12.011   15.699826   -2.396248   11.289054
  58 H     1.0000    0     1.008   13.668446   -2.150395   10.974792
  59 H     1.0000    0     1.008   16.583840   -3.003474    9.521593
  60 C     6.0000    0    12.011   16.221012   -4.177731   13.484122
  61 H     1.0000    0     1.008   18.102518   -5.022968   13.282885
  62 H     1.0000    0     1.008   14.837223   -5.706916   13.611716
  63 C     6.0000    0    12.011   16.179778   -2.424670   15.780593
  64 H     1.0000    0     1.008   17.145391   -3.256168   17.407704
  65 H     1.0000    0     1.008   14.212460   -2.050636   16.317332
  66 N     7.0000    0    14.007   21.216749    0.001550   17.549754
  67 C     6.0000    0    12.011   23.947517    0.000643   17.946786
  68 C     6.0000    0    12.011   24.371817    0.001852   20.827390
  69 O     8.0000    0    15.999   22.631303    0.003307   22.367611
  70 C     6.0000    0    12.011   25.249462    2.227364   16.554454
  71 C     6.0000    0    12.011   28.155049    2.043304   16.705614
  72 C     6.0000    0    12.011   29.510247    3.763238   14.836429
  73 H     1.0000    0     1.008   24.670205   -1.791971   17.193522
  74 C     6.0000    0    12.011   24.303862    4.806707   17.487431
  75 H     1.0000    0     1.008   28.743018    0.094354   16.317275
  76 H     1.0000    0     1.008   28.809045    2.508838   18.614917
  77 H     1.0000    0     1.008   29.153996    5.759337   15.234859
  78 H     1.0000    0     1.008   28.915663    3.363713   12.896209
  79 H     1.0000    0     1.008   31.553759    3.460126   14.952288
  80 H     1.0000    0     1.008   20.129665    0.739866   18.950004
  81 H     1.0000    0     1.008   24.722153    2.084387   14.551042
  82 H     1.0000    0     1.008   25.043312    6.340390   16.313684
  83 H     1.0000    0     1.008   24.883536    5.168477   19.439858
  84 H     1.0000    0     1.008   22.240716    4.930107   17.395817
  85 N     7.0000    0    14.007   26.725886    0.001342   21.760423
  86 C     6.0000    0    12.011   27.127945    0.002910   24.490038
  87 C     6.0000    0    12.011   30.009437    0.001814   24.891586
  88 O     8.0000    0    15.999   31.528796   -0.000038   23.132157
  89 C     6.0000    0    12.011   25.859466   -2.306089   25.708231
  90 H     1.0000    0     1.008   26.918676   -4.027403   25.239806
  91 H     1.0000    0     1.008   23.964316   -2.554872   24.904247
  92 C     6.0000    0    12.011   25.606148   -2.087032   28.577516
  93 H     1.0000    0     1.008   24.756093   -0.264448   29.080485
  94 H     1.0000    0     1.008   27.473594   -2.144650   29.467444
  95 C     6.0000    0    12.011   23.990187   -4.214184   29.659837
  96 H     1.0000    0     1.008   24.813295   -6.062884   29.230114
  97 H     1.0000    0     1.008   22.080222   -4.140957   28.872559
  98 N     7.0000    0    14.007   23.908456   -3.924489   32.407821
  99 H     1.0000    0     1.008   25.562949   -3.539174   33.306102
 100 C     6.0000    0    12.011   21.812504   -4.170531   33.863533
 101 N     7.0000    0    14.007   21.559999   -3.969030   36.309292
 102 H     1.0000    0     1.008   20.565360   -4.001174   37.979489
 103 H     1.0000    0     1.008   23.102733   -3.551117   37.416162
 104 N     7.0000    0    14.007   19.560876   -4.693985   33.227905
 105 H     1.0000    0     1.008   19.080451   -5.014388   31.421421
 106 H     1.0000    0     1.008   18.255114   -4.786279   34.613036
 107 H     1.0000    0     1.008   28.212761   -0.508884   20.654272
 108 H     1.0000    0     1.008   26.335885    1.764154   25.241034
 109 N     7.0000    0    14.007   30.960744    0.002872   27.238324
 110 C     6.0000    0    12.011   33.693817    0.001398   27.619198
 111 C     6.0000    0    12.011   34.135144    0.003175   30.497251
 112 O     8.0000    0    15.999   32.403795    0.005367   32.047733
 113 C     6.0000    0    12.011   34.988015    2.227515   26.218703
 114 C     6.0000    0    12.011   37.894395    2.042832   26.352703
 115 C     6.0000    0    12.011   39.238897    3.762029   24.475147
 116 H     1.0000    0     1.008   34.411629   -1.791536   26.862098
 117 C     6.0000    0    12.011   34.048537    4.807293   27.156668
 118 H     1.0000    0     1.008   38.479605    0.093655   25.961322
 119 H     1.0000    0     1.008   38.559786    2.508630   28.258001
 120 H     1.0000    0     1.008   38.885480    5.758298   24.875221
 121 H     1.0000    0     1.008   38.632767    3.362220   22.538556
 122 H     1.0000    0     1.008   41.283014    3.458482   24.578988
 123 H     1.0000    0     1.008   29.882145    0.741755   28.644828
 124 H     1.0000    0     1.008   34.448838    2.084217   24.218484
 125 H     1.0000    0     1.008   34.781392    6.340541   25.978216
 126 H     1.0000    0     1.008   34.639833    5.169365   29.105543
 127 H     1.0000    0     1.008   31.984919    4.931146   27.077224
 128 N     7.0000    0    14.007   36.494693    0.002324   31.416338
 129 C     6.0000    0    12.011   36.914496    0.004422   34.153965
 130 C     6.0000    0    12.011   39.794836    0.002740   34.521593
 131 O     8.0000    0    15.999   41.297300    0.000132   32.748047
 132 C     6.0000    0    12.011   35.604217   -2.040980   38.342600
 133 C     6.0000    0    12.011   35.681714   -2.299570   35.472711
 134 O     8.0000    0    15.999   33.118055   -2.698642   34.681804
 135 H     1.0000    0     1.008   34.542096   -3.609301   39.179843
 136 H     1.0000    0     1.008   34.624942   -0.303339   38.898350
 137 H     1.0000    0     1.008   37.492715   -2.036898   39.176498
 138 H     1.0000    0     1.008   36.718021   -4.025891   34.985294
 139 H     1.0000    0     1.008   36.120603    1.770768   34.892243
 140 H     1.0000    0     1.008   32.434239   -1.090410   34.066206
 141 H     1.0000    0     1.008   37.896152   -0.707873   30.310584
 142 N     7.0000    0    14.007   40.773128    0.004082   36.857219
 143 C     6.0000    0    12.011   43.513042    0.002060   37.206931
 144 C     6.0000    0    12.011   43.986739    0.004346   40.074799
 145 O     8.0000    0    15.999   42.266767    0.007294   41.639945
 146 C     6.0000    0    12.011   44.738945    2.314272   35.943687
 147 H     1.0000    0     1.008   43.791965    2.751951   34.149638
 148 H     1.0000    0     1.008   44.478219    4.001986   37.122763
 149 C     6.0000    0    12.011   47.514764    1.948780   35.377582
 150 C     6.0000    0    12.011   49.370097    3.081293   36.890289
 151 H     1.0000    0     1.008   48.841899    4.273691   38.480172
 152 C     6.0000    0    12.011   51.926292    2.684998   36.379420
 153 H     1.0000    0     1.008   53.364978    3.558373   37.555000
 154 C     6.0000    0    12.011   52.631122    1.179076   34.346472
 155 C     6.0000    0    12.011   50.819744    0.054273   32.811050
 156 H     1.0000    0     1.008   51.352533   -1.115241   31.212002
 157 C     6.0000    0    12.011   48.261640    0.437056   33.330668
 158 H     1.0000    0     1.008   46.844100   -0.441856   32.122132
 159 O     8.0000    0    15.999   55.149333    0.849356   33.915047
 160 H     1.0000    0     1.008   55.354406   -0.146699   32.386618
 161 H     1.0000    0     1.008   44.236221   -1.774037   36.419955
 162 H     1.0000    0     1.008   39.692110    0.516765   38.360685
 163 O     8.0000    0    15.999   46.423409    0.002986   40.836679

--------------------------------
INTERNAL COORDINATES (ANGSTROEM)
--------------------------------
 N      0   0   0     0.000000000000     0.00000000     0.00000000
 C      1   0   0     1.465150000000     0.00000000     0.00000000
 C      2   1   0     1.540858825461   105.83302734     0.00000000
 O      3   2   1     1.231687334391   122.79917827     0.00000000
 C      2   1   3     1.528382393153   111.05127604   239.70496252
 H      5   2   1     1.096800205780   110.37405172   311.14744686
 H      5   2   1     1.096937742901   110.57350680    70.10627616
 C      5   2   1     1.510271076330   112.29567567   191.66948902
 O      8   5   2     1.226135141369   124.69635251     2.84514829
 N      8   5   2     1.363515454441   114.40084273   184.43360698
 H     10   8   5     1.011083859034   123.05233204   353.50363741
 H     10   8   5     1.012313788210   118.07946923   181.56771154
 H      2   1   3     1.096522201326   107.87675499   116.79094294
 H      1   2   3     1.017472621155   116.94800427    12.95143474
 H      1   2   3     1.020003566758   109.47114980   175.00029763
 H      1   2   3     1.020004070433   109.47113980    99.99986914
 N      3   2   1     1.339995857643   120.00035254   180.00000000
 C     17   3   2     1.461454679899   120.00011677   179.99004068
 C     18  17   3     1.535202375096   108.46711181   180.00013192
 O     19  18  17     1.229181132502   123.13413806     0.00000000
 C     18  17   3     1.542271325124   112.19735468    57.42736621
 H     21  18  17     1.097195792418   111.24063811   117.65690681
 H     21  18  17     1.097893886084   111.00879102     0.15434871
 C     21  18  17     1.491384274491   111.60424193   239.34914469
 N     24  21  18     1.375849451866   122.41806596    65.86621781
 C     25  24  21     1.364598489850   107.36049485   181.65025059
 H     26  25  24     1.081709965240   122.41839918   178.92700035
 N     26  25  24     1.314045488824   111.56112374   359.05956537
 C     28  26  25     1.369729322202   105.45495681   359.80816355
 H     29  28  26     1.082721213840   121.06320874   180.67508260
 H     25  24  21     1.018136668085   125.85283920   359.16777012
 H     17   3   2     1.017309743441   122.33345144   351.00048898
 H     18  17   3     1.098071464887   106.36124843   294.62091666
 N     19  18  17     1.340000728395   120.00022513   180.00024569
 C     34  19  18     1.460252953806   120.00001823   179.98992193
 C     35  34  19     1.540802258728   106.65159680   179.99969721
 O     36  35  34     1.229890926952   123.12716898     0.00000000
 C     35  34  19     1.551112790386   111.77446170    54.93170346
 C     38  35  34     1.542730655234   111.72205426   186.89040714
 C     39  38  35     1.523494886798   113.43887775   165.20728685
 H     35  34  19     1.097715709918   107.02591524   295.38587180
 C     38  35  34     1.535311266942   112.20119664    61.00877215
 H     39  38  35     1.096678437191   109.41527518    44.73436001
 H     39  38  35     1.096032559279   110.38378047   287.08175759
 H     40  39  38     1.093498587333   111.76132001    64.24392685
 H     40  39  38     1.094463933120   110.99856593   302.91917084
 H     40  39  38     1.094930800097   109.93918663   183.55460312
 H     34  19  18     1.016190767819   117.89979296   334.24326554
 H     38  35  34     1.098875699704   107.04853421   304.18337820
 H     42  38  35     1.094340884048   111.11734750   187.81391177
 H     42  38  35     1.094629515042   111.57175360    67.46870440
 H     42  38  35     1.094793780262   111.33422562   306.58952471
 N     36  35  34     1.339996547458   119.99999691   180.00005385
 C     53  36  35     1.455686859768   119.99985216   179.99015707
 C     54  53  36     1.541631940153   112.29013979   179.99994762
 O     55  54  53     1.226521299856   124.75943507     0.00000000
 H     54  53  36     1.096062678545   109.46523681   299.85918391
 C     53  36  35     1.447099955843    63.59783722   281.91201124
 H     58  53  36     1.095500206116   108.12766352   354.13433916
 H     58  53  36     1.094018235177   110.65583144   113.37836080
 C     58  53  36     1.521201740336   104.22800640   235.32790457
 H     61  58  53     1.096685205973   110.07231818   272.50703958
 H     61  58  53     1.093434555609   112.60434983   151.70061852
 C     61  58  53     1.529010971968   103.19769617    29.56225919
 H     64  61  58     1.093655348545   112.02212853   199.72294769
 H     64  61  58     1.097112231907   109.19361855    79.90159235
 N     55  54  53     1.340001013321   120.00036578   180.00027157
 C     67  55  54     1.460253623176   119.99993539   179.99026920
 C     68  67  55     1.540797537965   106.65152956   179.99965534
 O     69  68  67     1.229886896019   123.12721679     0.00000000
 C     68  67  55     1.551124422669   111.77445258    54.93098510
 C     71  68  67     1.542727022192   111.72137176   186.89070266
 C     72  71  68     1.523496294383   113.43856594   165.20801709
 H     68  67  55     1.097726545684   107.02548398   295.38591023
 C     71  68  67     1.535308966007   112.20046156    61.00943329
 H     72  71  68     1.096677046901   109.41578213    44.73444333
 H     72  71  68     1.096032398472   110.38385318   287.08139878
 H     73  72  71     1.093499821719   111.76153112    64.24319766
 H     73  72  71     1.094463660612   110.99808352   302.91910773
 H     73  72  71     1.094929121222   109.93927840   183.55457295
 H     67  55  54     1.016180061800   117.89947865   334.24333166
 H     71  68  67     1.098875326322   107.04816602   304.18355414
 H     75  71  68     1.094341844443   111.11674606   187.81334208
 H     75  71  68     1.094625848635   111.57187262    67.46849670
 H     75  71  68     1.094795018851   111.33422465   306.58864526
 N     69  68  67     1.339999096604   120.00000812   179.99970517
 C     86  69  68     1.460035379366   119.99996150   179.98987035
 C     87  86  69     1.539554600818   106.31241848   180.00011299
 O     88  87  86     1.230157365137   122.87900382     0.00000000
 C     87  86  69     1.535937364934   110.55382379    58.22395474
 H     90  87  86     1.097869905271   110.00746911    72.15843029
 H     90  87  86     1.097309282700   109.39818958   315.82518539
 C     90  87  86     1.528667373401   113.25806485   194.91091812
 H     93  90  87     1.096991593131   110.09755193    50.04570058
 H     93  90  87     1.095108994165   110.23604707   292.38730883
 C     93  90  87     1.525235665102   111.48006846   171.32059944
 H     96  93  90     1.094752624569   111.00387265    59.55253401
 H     96  93  90     1.093892206161   110.41787881   298.96447565
 N     96  93  90     1.462867677338   108.21075368   178.10867209
 H     99  96  93     1.016891391890   117.40210288   315.25624946
 C     99  96  93     1.356661234723   125.34867415   136.45554155
 N    101  99  96     1.305481305458   129.69964572   179.37125679
 H    102 101  99     1.028823893871   154.51310943   181.01088537
 H    102 101  99     1.028816436397   120.05032625     0.50071394
 N    101  99  96     1.268685591350   129.65953631     0.44030908
 H    105 101  99     1.003603755423   121.82519542     0.41072411
 H    105 101  99     1.008512957973   117.47437130   180.15330338
 H     86  69  68     1.017162885137   120.47298332   342.10332919
 H     87  86  69     1.096474207540   107.65914471   296.92419703
 N     88  87  86     1.339995719135   119.99966666   180.00014390
 C    110  88  87     1.460256432720   119.99984939   179.98958501
 C    111 110  88     1.540802003893   106.65142561   179.99968023
 O    112 111 110     1.229875153054   123.12761953     0.00000000
 C    111 110  88     1.551123725497   111.77404817    54.93203146
 C    114 111 110     1.542722470537   111.72170068   186.89044694
 C    115 114 111     1.523492212517   113.43873527   165.20753258
 H    111 110  88     1.097716684988   107.02631237   295.38621125
 C    114 111 110     1.535312108530   112.20082316    61.00875596
 H    115 114 111     1.096679527528   109.41540314    44.73425454
 H    115 114 111     1.096032239398   110.38392117   287.08147599
 H    116 115 114     1.093497283444   111.76185843    64.24356222
 H    116 115 114     1.094466750249   110.99883283   302.91915196
 H    116 115 114     1.094941272124   109.93938887   183.55428685
 H    110  88  87     1.016182560862   117.90028218   334.24331561
 H    114 111 110     1.098870525676   107.04805758   304.18306299
 H    118 114 111     1.094345045130   111.11663152   187.81347581
 H    118 114 111     1.094621697209   111.57166696    67.46882996
 H    118 114 111     1.094792461428   111.33416221   306.58879451
 N    112 111 110     1.339999312127   119.99973593   180.00000000
 C    129 112 111     1.465624293842   119.99991676   179.99025558
 C    130 129 112     1.536574999081   105.99162631   180.00031257
 O    131 130 129     1.230023576888   122.99619133     0.00000000
 C    130 129 112     2.562286803268   144.46173005    46.75133857
 C    133 130 129     1.525383869097    33.83573376    19.97194402
 O    134 133 130     1.435342924252   106.14656331   236.31109405
 H    133 130 129     1.095883530034   143.94231928    10.36847022
 H    133 130 129     1.095695013496    90.32450306   250.95709927
 H    133 130 129     1.092443649119    95.79960858   142.00305696
 H    134 133 130     1.096264811941   108.81119917   122.21162750
 H    130 129 112     1.096725151804   107.13907685   296.96635518
 H    135 134 133     0.980475047515   108.54204810    99.77164213
 H    129 112 111     1.016675816768   118.09529734   335.28928528
 N    131 130 129     1.340000209627   120.00018929   180.00043596
 C    143 131 130     1.461662874434   120.00035298   179.98988845
 C    144 143 131     1.538173275382   106.65275405   179.99968042
 O    145 144 143     1.230606907221   122.92261438     0.00000000
 C    144 143 131     1.537799302152   111.27442605    58.72361376
 H    147 144 143     1.098211201637   110.55430936   322.22061796
 H    147 144 143     1.098164129126   110.31032398    78.16547426
 C    147 144 143     1.511561055002   113.22149778   201.65954640
 C    150 147 144     1.401383591348   120.85682610   256.41715001
 H    151 150 147     1.088168364317   120.64136258   358.85425405
 C    151 150 147     1.395279607140   120.28179764   178.63037701
 H    153 151 150     1.086372504899   120.29847705   180.17437295
 C    153 151 150     1.389779771942   119.75818735     0.60135236
 C    155 153 151     1.390416585092   120.84996117   359.89728930
 H    156 155 153     1.085598088797   121.36528595   179.60860483
 C    156 155 153     1.396107327751   119.42217135   359.70152178
 H    158 156 155     1.089959470714   119.32970013   179.83453584
 O    155 153 151     1.363207107082   117.73421684   179.84538711
 H    160 155 153     0.971480352143   108.54625898   183.56927063
 H    144 143 131     1.096921991529   107.37523043   296.21975320
 H    143 131 130     1.016771484897   120.29863932   342.07328561
 O    145 144 143     1.350990855706   116.74211731   180.00035801

---------------------------
INTERNAL COORDINATES (A.U.)
---------------------------
 N      0   0   0     0.000000000000     0.00000000     0.00000000
 C      1   0   0     2.768732245115     0.00000000     0.00000000
 C      2   1   0     2.911801191156   105.83302734     0.00000000
 O      3   2   1     2.327551744619   122.79917827     0.00000000
 C      2   1   3     2.888224150966   111.05127604   239.70496252
 H      5   2   1     2.072652012553   110.37405172   311.14744686
 H      5   2   1     2.072911920044   110.57350680    70.10627616
 C      5   2   1     2.853998722247   112.29567567   191.66948902
 O      8   5   2     2.317059620364   124.69635251     2.84514829
 N      8   5   2     2.576670788263   114.40084273   184.43360698
 H     10   8   5     1.910671592003   123.05233204   353.50363741
 H     10   8   5     1.912995821309   118.07946923   181.56771154
 H      2   1   3     2.072126660270   107.87675499   116.79094294
 H      1   2   3     1.922744602746   116.94800427    12.95143474
 H      1   2   3     1.927527396796   109.47114980   175.00029763
 H      1   2   3     1.927528348603   109.47113980    99.99986914
 N      3   2   1     2.532225191534   120.00035254   180.00000000
 C     17   3   2     2.761749102148   120.00011677   179.99004068
 C     18  17   3     2.901112049077   108.46711181   180.00013192
 O     19  18  17     2.322815709413   123.13413806     0.00000000
 C     18  17   3     2.914470428684   112.19735468    57.42736621
 H     21  18  17     2.073399562961   111.24063811   117.65690681
 H     21  18  17     2.074718768805   111.00879102     0.15434871
 C     21  18  17     2.818307839225   111.60424193   239.34914469
 N     24  21  18     2.599978665532   122.41806596    65.86621781
 C     25  24  21     2.578717428578   107.36049485   181.65025059
 H     26  25  24     2.044135590637   122.41839918   178.92700035
 N     26  25  24     2.483186101393   111.56112374   359.05956537
 C     28  26  25     2.588413296563   105.45495681   359.80816355
 H     29  28  26     2.046046573545   121.06320874   180.67508260
 H     25  24  21     1.923999469584   125.85283920   359.16777012
 H     17   3   2     1.922436808473   122.33345144   351.00048898
 H     18  17   3     2.075054344111   106.36124843   294.62091666
 N     19  18  17     2.532234395922   120.00022513   180.00024569
 C     34  19  18     2.759478168943   120.00001823   179.98992193
 C     35  34  19     2.911694295522   106.65159680   179.99969721
 O     36  35  34     2.324157026535   123.12716898     0.00000000
 C     35  34  19     2.931178376653   111.77446170    54.93170346
 C     38  35  34     2.915338436798   111.72205426   186.89040714
 C     39  38  35     2.878988102478   113.43887775   165.20728685
 H     35  34  19     2.074382064647   107.02591524   295.38587180
 C     38  35  34     2.901317824845   112.20119664    61.00877215
 H     39  38  35     2.072421903268   109.41527518    44.73436001
 H     39  38  35     2.071201370898   110.38378047   287.08175759
 H     40  39  38     2.066412857890   111.76132001    64.24392685
 H     40  39  38     2.068237097051   110.99856593   302.91917084
 H     40  39  38     2.069119347778   109.93918663   183.55460312
 H     34  19  18     1.920322250997   117.89979296   334.24326554
 H     38  35  34     2.076574127662   107.04853421   304.18337820
 H     42  38  35     2.068004568005   111.11734750   187.81391177
 H     42  38  35     2.068550001535   111.57175360    67.46870440
 H     42  38  35     2.068860417815   111.33422562   306.58952471
 N     36  35  34     2.532226495096   119.99999691   180.00005385
 C     53  36  35     2.750849501709   119.99985216   179.99015707
 C     54  53  36     2.913262166195   112.29013979   179.99994762
 O     55  54  53     2.317789354149   124.75943507     0.00000000
 H     54  53  36     2.071258288063   109.46523681   299.85918391
 C     53  36  35     2.734622604952    63.59783722   281.91201124
 H     58  53  36     2.070195369213   108.12766352   354.13433916
 H     58  53  36     2.067394850001   110.65583144   113.37836080
 C     58  53  36     2.874654683679   104.22800640   235.32790457
 H     61  58  53     2.072434694412   110.07231818   272.50703958
 H     61  58  53     2.066291855467   112.60434983   151.70061852
 C     61  58  53     2.889411992781   103.19769617    29.56225919
 H     64  61  58     2.066709093647   112.02212853   199.72294769
 H     64  61  58     2.073241656479   109.19361855    79.90159235
 N     55  54  53     2.532234934353   120.00036578   180.00027157
 C     67  55  54     2.759479433870   119.99993539   179.99026920
 C     68  67  55     2.911685374575   106.65152956   179.99965534
 O     69  68  67     2.324149409175   123.12721679     0.00000000
 C     68  67  55     2.931200358481   111.77445258    54.93098510
 C     71  68  67     2.915331571342   111.72137176   186.89070266
 C     72  71  68     2.878990762429   113.43856594   165.20801709
 H     68  67  55     2.074402541279   107.02548398   295.38591023
 C     71  68  67     2.901313476706   112.20046156    61.00943329
 H     72  71  68     2.072419276001   109.41578213    44.73444333
 H     72  71  68     2.071201067017   110.38385318   287.08139878
 H     73  72  71     2.066415190541   111.76153112    64.24319766
 H     73  72  71     2.068236582085   110.99808352   302.91910773
 H     73  72  71     2.069116175165   109.93927840   183.55457295
 H     67  55  54     1.920302019553   117.89947865   334.24333166
 H     71  68  67     2.076573422073   107.04816602   304.18355414
 H     75  71  68     2.068006382888   111.11674606   187.81334208
 H     75  71  68     2.068543073031   111.57187262    67.46849670
 H     75  71  68     2.068862758409   111.33422465   306.58864526
 N     69  68  67     2.532231312284   120.00000812   179.99970517
 C     86  69  68     2.759067012837   119.99996150   179.98987035
 C     87  86  69     2.909336563765   106.31241848   180.00011299
 O     88  87  86     2.324660521734   122.87900382     0.00000000
 C     87  86  69     2.902500978582   110.55382379    58.22395474
 H     90  87  86     2.074673451636   110.00746911    72.15843029
 H     90  87  86     2.073614028513   109.39818958   315.82518539
 C     90  87  86     2.888762685588   113.25806485   194.91091812
 H     93  90  87     2.073013682231   110.09755193    50.04570058
 H     93  90  87     2.069456085765   110.23604707   292.38730883
 C     93  90  87     2.882277696733   111.48006846   171.32059944
 H     96  93  90     2.068782644826   111.00387265    59.55253401
 H     96  93  90     2.067156689675   110.41787881   298.96447565
 N     96  93  90     2.764419280334   108.21075368   178.10867209
 H     99  96  93     1.921646238614   117.40210288   315.25624946
 C     99  96  93     2.563718190134   125.34867415   136.45554155
 N    101  99  96     2.467002140269   129.69964572   179.37125679
 H    102 101  99     1.944195399451   154.51310943   181.01088537
 H    102 101  99     1.944181306867   120.05032625     0.50071394
 N    101  99  96     2.397468317704   129.65953631     0.44030908
 H    105 101  99     1.896536244725   121.82519542     0.41072411
 H    105 101  99     1.905813293080   117.47437130   180.15330338
 H     86  69  68     1.922159286498   120.47298332   342.10332919
 H     87  86  69     2.072035965159   107.65914471   296.92419703
 N     88  87  86     2.532224929792   119.99966666   180.00014390
 C    110  88  87     2.759484743138   119.99984939   179.98958501
 C    111 110  88     2.911693813954   106.65142561   179.99968023
 O    112 111 110     2.324127218187   123.12761953     0.00000000
 C    111 110  88     2.931199041017   111.77404817    54.93203146
 C    114 111 110     2.915322969961   111.72170068   186.89044694
 C    115 114 111     2.878983048819   113.43873527   165.20753258
 H    111 110  88     2.074383907262   107.02631237   295.38621125
 C    114 111 110     2.901319415216   112.20082316    61.00875596
 H    115 114 111     2.072423963707   109.41540314    44.73425454
 H    115 114 111     2.071200766411   110.38392117   287.08147599
 H    116 115 114     2.066410393897   111.76185843    64.24356222
 H    116 115 114     2.068242420653   110.99883283   302.91915196
 H    116 115 114     2.069139137041   109.93938887   183.55428685
 H    110  88  87     1.920306742096   117.90028218   334.24331561
 H    114 111 110     2.076564350166   107.04805758   304.18306299
 H    118 114 111     2.068012431309   111.11663152   187.81347581
 H    118 114 111     2.068535227972   111.57166696    67.46882996
 H    118 114 111     2.068857925581   111.33416221   306.58879451
 N    112 111 110     2.532231719562   119.99973593   180.00000000
 C    129 112 111     2.769628530583   119.99991676   179.99025558
 C    130 129 112     2.903705932493   105.99162631   180.00031257
 O    131 130 129     2.324407698584   122.99619133     0.00000000
 C    130 129 112     4.842020334737   144.46173005    46.75133857
 C    133 130 129     2.882557761694    33.83573376    19.97194402
 O    134 133 130     2.712405035098   106.14656331   236.31109405
 H    133 130 129     2.070919746439   143.94231928    10.36847022
 H    133 130 129     2.070563501811    90.32450306   250.95709927
 H    133 130 129     2.064419313576    95.79960858   142.00305696
 H    134 133 130     2.071640264823   108.81119917   122.21162750
 H    130 129 112     2.072510181093   107.13907685   296.96635518
 H    135 134 133     1.852829320947   108.54204810    99.77164213
 H    129 112 111     1.921238860671   118.09529734   335.28928528
 N    131 130 129     2.532233415592   120.00018929   180.00043596
 C    143 131 130     2.762142532801   120.00035298   179.98988845
 C    144 143 131     2.906726236989   106.65275405   179.99968042
 O    145 144 143     2.325510033159   122.92261438     0.00000000
 C    144 143 131     2.906019530003   111.27442605    58.72361376
 H    147 144 143     2.075318408298   110.55430936   322.22061796
 H    147 144 143     2.075229454145   110.31032398    78.16547426
 C    147 144 143     2.856436428656   113.22149778   201.65954640
 C    150 147 144     2.648231196219   120.85682610   256.41715001
 H    151 150 147     2.056340196156   120.64136258   358.85425405
 C    151 150 147     2.636696337739   120.28179764   178.63037701
 H    153 151 150     2.052946513681   120.29847705   180.17437295
 C    153 151 150     2.626303155434   119.75818735     0.60135236
 C    155 153 151     2.627506557887   120.84996117   359.89728930
 H    156 155 153     2.051483079335   121.36528595   179.60860483
 C    156 155 153     2.638260503010   119.42217135   359.70152178
 H    158 156 155     2.059724896724   119.32970013   179.83453584
 O    155 153 151     2.576088096201   117.73421684   179.84538711
 H    160 155 153     1.835831810036   108.54625898   183.56927063
 H    144 143 131     2.072882154265   107.37523043   296.21975320
 H    143 131 130     1.921419647236   120.29863932   342.07328561
 O    145 144 143     2.553002726715   116.74211731   180.00035801

---------------------
BASIS SET INFORMATION
---------------------
There are 4 groups of distinct atoms

 Group   1 Type N   : 6s3p contracted to 2s1p pattern {33/3}
 Group   2 Type C   : 6s3p contracted to 2s1p pattern {33/3}
 Group   3 Type O   : 6s3p contracted to 2s1p pattern {33/3}
 Group   4 Type H   : 3s contracted to 1s pattern {3}

Atom   0N    basis set group =>   1
Atom   1C    basis set group =>   2
Atom   2C    basis set group =>   2
Atom   3O    basis set group =>   3
Atom   4C    basis set group =>   2
Atom   5H    basis set group =>   4
Atom   6H    basis set group =>   4
Atom   7C    basis set group =>   2
Atom   8O    basis set group =>   3
Atom   9N    basis set group =>   1
Atom  10H    basis set group =>   4
Atom  11H    basis set group =>   4
Atom  12H    basis set group =>   4
Atom  13H    basis set group =>   4
Atom  14H    basis set group =>   4
Atom  15H    basis set group =>   4
Atom  16N    basis set group =>   1
Atom  17C    basis set group =>   2
Atom  18C    basis set group =>   2
Atom  19O    basis set group =>   3
Atom  20C    basis set group =>   2
Atom  21H    basis set group =>   4
Atom  22H    basis set group =>   4
Atom  23C    basis set group =>   2
Atom  24N    basis set group =>   1
Atom  25C    basis set group =>   2
Atom  26H    basis set group =>   4
Atom  27N    basis set group =>   1
Atom  28C    basis set group =>   2
Atom  29H    basis set group =>   4
Atom  30H    basis set group =>   4
Atom  31H    basis set group =>   4
Atom  32H    basis set group =>   4
Atom  33N    basis set group =>   1
Atom  34C    basis set group =>   2
Atom  35C    basis set group =>   2
Atom  36O    basis set group =>   3
Atom  37C    basis set group =>   2
Atom  38C    basis set group =>   2
Atom  39C    basis set group =>   2
Atom  40H    basis set group =>   4
Atom  41C    basis set group =>   2
Atom  42H    basis set group =>   4
Atom  43H    basis set group =>   4
Atom  44H    basis set group =>   4
Atom  45H    basis set group =>   4
Atom  46H    basis set group =>   4
Atom  47H    basis set group =>   4
Atom  48H    basis set group =>   4
Atom  49H    basis set group =>   4
Atom  50H    basis set group =>   4
Atom  51H    basis set group =>   4
Atom  52N    basis set group =>   1
Atom  53C    basis set group =>   2
Atom  54C    basis set group =>   2
Atom  55O    basis set group =>   3
Atom  56H    basis set group =>   4
Atom  57C    basis set group =>   2
Atom  58H    basis set group =>   4
Atom  59H    basis set group =>   4
Atom  60C    basis set group =>   2
Atom  61H    basis set group =>   4
Atom  62H    basis set group =>   4
Atom  63C    basis set group =>   2
Atom  64H    basis set group =>   4
Atom  65H    basis set group =>   4
Atom  66N    basis set group =>   1
Atom  67C    basis set group =>   2
Atom  68C    basis set group =>   2
Atom  69O    basis set group =>   3
Atom  70C    basis set group =>   2
Atom  71C    basis set group =>   2
Atom  72C    basis set group =>   2
Atom  73H    basis set group =>   4
Atom  74C    basis set group =>   2
Atom  75H    basis set group =>   4
Atom  76H    basis set group =>   4
Atom  77H    basis set group =>   4
Atom  78H    basis set group =>   4
Atom  79H    basis set group =>   4
Atom  80H    basis set group =>   4
Atom  81H    basis set group =>   4
Atom  82H    basis set group =>   4
Atom  83H    basis set group =>   4
Atom  84H    basis set group =>   4
Atom  85N    basis set group =>   1
Atom  86C    basis set group =>   2
Atom  87C    basis set group =>   2
Atom  88O    basis set group =>   3
Atom  89C    basis set group =>   2
Atom  90H    basis set group =>   4
Atom  91H    basis set group =>   4
Atom  92C    basis set group =>   2
Atom  93H    basis set group =>   4
Atom  94H    basis set group =>   4
Atom  95C    basis set group =>   2
Atom  96H    basis set group =>   4
Atom  97H    basis set group =>   4
Atom  98N    basis set group =>   1
Atom  99H    basis set group =>   4
Atom 100C    basis set group =>   2
Atom 101N    basis set group =>   1
Atom 102H    basis set group =>   4
Atom 103H    basis set group =>   4
Atom 104N    basis set group =>   1
Atom 105H    basis set group =>   4
Atom 106H    basis set group =>   4
Atom 107H    basis set group =>   4
Atom 108H    basis set group =>   4
Atom 109N    basis set group =>   1
Atom 110C    basis set group =>   2
Atom 111C    basis set group =>   2
Atom 112O    basis set group =>   3
Atom 113C    basis set group =>   2
Atom 114C    basis set group =>   2
Atom 115C    basis set group =>   2
Atom 116H    basis set group =>   4
Atom 117C    basis set group =>   2
Atom 118H    basis set group =>   4
Atom 119H    basis set group =>   4
Atom 120H    basis set group =>   4
Atom 121H    basis set group =>   4
Atom 122H    basis set group =>   4
Atom 123H    basis set group =>   4
Atom 124H    basis set group =>   4
Atom 125H    basis set group =>   4
Atom 126H    basis set group =>   4
Atom 127H    basis set group =>   4
Atom 128N    basis set group =>   1
Atom 129C    basis set group =>   2
Atom 130C    basis set group =>   2
Atom 131O    basis set group =>   3
Atom 132C    basis set group =>   2
Atom 133C    basis set group =>   2
Atom 134O    basis set group =>   3
Atom 135H    basis set group =>   4
Atom 136H    basis set group =>   4
Atom 137H    basis set group =>   4
Atom 138H    basis set group =>   4
Atom 139H    basis set group =>   4
Atom 140H    basis set group =>   4
Atom 141H    basis set group =>   4
Atom 142N    basis set group =>   1
Atom 143C    basis set group =>   2
Atom 144C    basis set group =>   2
Atom 145O    basis set group =>   3
Atom 146C    basis set group =>   2
Atom 147H    basis set group =>   4
Atom 148H    basis set group =>   4
Atom 149C    basis set group =>   2
Atom 150C    basis set group =>   2
Atom 151H    basis set group =>   4
Atom 152C    basis set group =>   2
Atom 153H    basis set group =>   4
Atom 154C    basis set group =>   2
Atom 155C    basis set group =>   2
Atom 156H    basis set group =>   4
Atom 157C    basis set group =>   2
Atom 158H    basis set group =>   4
Atom 159O    basis set group =>   3
Atom 160H    basis set group =>   4
Atom 161H    basis set group =>   4
Atom 162H    basis set group =>   4
Atom 163O    basis set group =>   3


           ************************************************************
           *        Program running with 15 parallel MPI-processes    *
           *              working on a common directory               *
           ************************************************************
------------------------------------------------------------------------------
                           ORCA GTO INTEGRAL CALCULATION
------------------------------------------------------------------------------

                         BASIS SET STATISTICS AND STARTUP INFO

 # of primitive gaussian shells          ...  972
 # of primitive gaussian functions       ... 1452
 # of contracted shells                  ...  324
 # of contracted basis functions         ...  484
 Highest angular momentum                ...    1
 Maximum contraction depth               ...    3
 Integral package used                   ... LIBINT
 Integral threshhold            Thresh   ...  1.000e-10
 Primitive cut-off              TCut     ...  1.000e-11


------------------------------ INTEGRAL EVALUATION ----------------------------


 * One electron integrals 
 Pre-screening matrix                    ... done
 Shell pair data                         ... done (   0.010 sec)



           ************************************************************
           *        Program running with 15 parallel MPI-processes    *
           *              working on a common directory               *
           ************************************************************
-------------------------------------------------------------------------------
                                 ORCA SCF
-------------------------------------------------------------------------------

------------
SCF SETTINGS
------------
Hamiltonian:
 Ab initio Hamiltonian  Method          .... Hartree-Fock(GTOs)


General Settings:
 Integral files         IntName         .... NHIPIRITY
 Hartree-Fock type      HFTyp           .... UHF
 Total Charge           Charge          ....    0
 Multiplicity           Mult            ....    2
 Number of Electrons    NEL             ....  605
 Basis Dimension        Dim             ....  484
 Nuclear Repulsion      ENuc            ....  12753.3892412981 Eh

Convergence Acceleration:
 DIIS                   CNVDIIS         .... off
 Newton-Raphson         CNVNR           .... off
 SOSCF                  CNVSOSCF        .... off
 Level Shifting         CNVShift        .... off
 Zerner damping         CNVZerner       .... off
 Static damping         CNVDamp         .... off
 Fernandez-Rico         CNVRico         .... off

SCF Procedure:
 Maximum # iterations   MaxIter         .... 10000
 SCF integral mode      SCFMode         .... Direct
   Integral package                     .... LIBINT
 Reset frequency        DirectResetFreq ....    20
 Integral Threshold     Thresh          ....  1.000e-10 Eh
 Primitive CutOff       TCut            ....  1.000e-11 Eh

Convergence Tolerance:
 Convergence Check Mode ConvCheckMode   .... All-Criteria
 Convergence forced     ConvForced      .... 0
 Energy Change          TolE            ....  1.000e-06 Eh
 Max Density Change     TolMaxP         ....  1.000e-05
 RMS Density Change     TolRMSP         ....  1.000e-06


Diagonalization of the overlap matrix:
Smallest eigenvalue                        ... 1.716e-01
Time for diagonalization                   ...    0.049 sec
Threshold for overlap eigenvalues          ... 1.000e-08
Number of eigenvalues below threshold      ... 0
Time for construction of square roots      ...    0.064 sec
Total time needed                          ...    0.114 sec

--------------------------------
INITIAL GUESS: MINIMAL BASIS EHT
--------------------------------
The minimal basis has 484 functions
EHT matrix was diagonalized
Basis set overlap was calculated now projecting the orbitals
Using GuessMode=FMatrix for the initial guess
C*T matrix was formed
Effective Fockian was calculated
Effective Fockian was diagonalized
Initial density was built
                      ------------------
                      INITIAL GUESS DONE
                      ------------------

--------------------
CPCM SOLVATION MODEL
--------------------
CPCM parameters:
  Epsilon                                         ...      78.3550
  Refrac                                          ...       1.3300
  Rsolv                                           ...       1.3000
  Surface type                                    ...    GEPOL SES
  Epsilon function type                           ...         CPCM
Solvent:                                     ... WATER
SMD-CDS solvent descriptors:
  Soln                                       ...    1.3328
  Soln25                                     ...    1.3323
  Sola                                       ...    0.0000
  Solb                                       ...    0.0000
  Solg                                       ...    0.0000
  Solc                                       ...    0.0000
  Solh                                       ...    0.0000
Radii:
 Radius for N  used is    3.5716 Bohr (=   1.8900 Ang.)
 Radius for C  used is    3.4960 Bohr (=   1.8500 Ang.)
 Radius for O  used is    2.8724 Bohr (=   1.5200 Ang.)
 Radius for H  used is    2.2677 Bohr (=   1.2000 Ang.)
Calculating surface                               ...        done! (  1.0s)
GEPOL surface points                              ...         7481
GEPOL Volume                                      ...    7906.3725
GEPOL Surface-area                                ...    3912.9694
Calculating surface distance matrix               ...        done! (  1.1s)
Performing Cholesky decomposition & store         ...        done! (  5.4s)
Overall time for CPCM initialization              ...                 7.4s
--------------
SCF ITERATIONS
--------------
ITER       Energy         Delta-E        Max-DP      RMS-DP      [F,P]   Gradient Norm
               ***  Starting incremental Fock matrix formation  ***
                             ****Resetting KDIIS****
                             ****Turning on KDIIS(Cayley)****
  0  -3775.2591598162   0.000000000000 0.02824163  0.00056908  0.7682475   0.205007135
  1  -3776.4553618671  -1.196202050899 0.04240016  0.00081629  0.6950554   0.184463512
  2  -3777.9866383259  -1.531276458894 0.09677051  0.00150044  0.5599898   0.149049021
  3  -3779.9034850197  -1.916846693769 0.11825630  0.00228880  0.3387600   0.089913178
  4  -3780.9795205294  -1.076035509652 0.12760662  0.00058855  0.0413579   0.007242262
  5  -3780.9785340161   0.000986513232 0.13372062  0.00060415  0.0249782   0.004024793
  6  -3780.9660371176   0.012496898530 0.01010712  0.00013094  0.0096382   0.004517019
  7  -3780.9731764616  -0.007139343959 0.02932484  0.00027471  0.0071526   0.003095985
  8  -3780.9794089255  -0.006232463894 0.03417045  0.00019357  0.0069436   0.000979450
  9  -3780.9789784141   0.000430511372 0.04005501  0.00022125  0.0058424   0.000876283
 10  -3780.9786092475   0.000369166569 0.04025954  0.00023559  0.0053500   0.000807142
 11  -3780.9786757407  -0.000066493197 0.03336997  0.00020466  0.0064805   0.000871588
 12  -3780.9779974648   0.000678275959 0.03467608  0.00018166  0.0049607   0.000841374
 13  -3780.9779460677   0.000051397032 0.08634243  0.00042542  0.0039109   0.000691599
 14  -3780.9773277092   0.000618358486 0.09702694  0.00049129  0.0049143   0.000762781
 15  -3780.9761293286   0.001198380654 0.12668487  0.00062559  0.0096084   0.001582828
 16  -3780.9775732407  -0.001443912141 0.06507415  0.00032144  0.0036038   0.000673710
 17  -3780.9777798269  -0.000206586208 0.00548922  0.00003080  0.0037356   0.000650484
 18  -3780.9777725656   0.000007261291 0.01900487  0.00011916  0.0038915   0.000654635
 19  -3780.9778577500  -0.000085184351 0.01547894  0.00008311  0.0038104   0.000695344
               *** Restarting incremental Fock matrix formation ***
                             ****Resetting KDIIS****
 20  -3780.9778451731   0.000012576887 0.00127872  0.00000761  0.0041741   0.000727571
 21  -3780.9779280784  -0.000082905274 0.00395040  0.00002066  0.0041093   0.000684853
 22  -3780.9781245278  -0.000196449406 0.00557004  0.00002686  0.0040030   0.000615402
 23  -3780.9780439116   0.000080616217 0.05184727  0.00027533  0.0037719   0.000535580
 24  -3780.9771983353   0.000845576305 0.05625500  0.00028944  0.0026533   0.000336530
 25  -3780.9763117237   0.000886611549 0.03631556  0.00018052  0.0032547   0.000318237
 26  -3780.9751702324   0.001141491352 0.04761963  0.00025278  0.0056318   0.000541567
 27  -3780.9766658359  -0.001495603522 0.02811580  0.00016163  0.0026490   0.000344516
 28  -3780.9773162253  -0.000650389446 0.00373616  0.00001953  0.0017158   0.000279723
 29  -3780.9773715463  -0.000055320979 0.00250500  0.00001512  0.0016186   0.000287368
 30  -3780.9774273283  -0.000055781944 0.00500148  0.00003177  0.0016821   0.000291972
 31  -3780.9774221755   0.000005152803 0.04988960  0.00027124  0.0018706   0.000303574
 32  -3780.9781769541  -0.000754778688 0.18990078  0.00092955  0.0021800   0.000321635
 33  -3780.9715359406   0.006641013513 0.06975303  0.00033311  0.0113322   0.001314758
 34  -3780.9755656805  -0.004029739852 0.07245352  0.00034306  0.0056206   0.000602180
 35  -3780.9711411658   0.004424514665 0.02231937  0.00011328  0.0117041   0.001498110
 36  -3780.9726422754  -0.001501109546 0.00128488  0.00000610  0.0099662   0.001342903
 37  -3780.9727122598  -0.000069984409 0.11503945  0.00054816  0.0098463   0.001335311
 38  -3780.9771890407  -0.004476780906 0.01130876  0.00005902  0.0016544   0.000491502
 39  -3780.9768841389   0.000304901749 0.04724730  0.00025885  0.0019379   0.000627464
               *** Restarting incremental Fock matrix formation ***
                             ****Resetting KDIIS****
 40  -3780.9779505700  -0.001066431114 0.00060877  0.00000371  0.0019080   0.000343745
 41  -3780.9779712248  -0.000020654800 0.00066356  0.00000443  0.0018990   0.000332124
 42  -3780.9779963205  -0.000025095627 0.00721366  0.00004337  0.0018651   0.000312090
 43  -3780.9778074627   0.000188857751 0.06965549  0.00043200  0.0017293   0.000282196
 44  -3780.9760941265   0.001713336253 0.03110203  0.00019259  0.0033482   0.000400691
 45  -3780.9768737771  -0.000779650651 0.00928324  0.00004895  0.0021263   0.000286112
 46  -3780.9766939745   0.000179802570 0.00300723  0.00002175  0.0024863   0.000326887
 47  -3780.9766587534   0.000035221175 0.03919817  0.00021512  0.0025986   0.000350380
 48  -3780.9772807067  -0.000621953293 0.05747181  0.00030407  0.0016258   0.000254761
 49  -3780.9780825971  -0.000801890420 0.06140098  0.00032563  0.0028441   0.000321293
 50  -3780.9772048299   0.000877767152 0.08046634  0.00042227  0.0016945   0.000209729
 51  -3780.9753055940   0.001899235971 0.05038147  0.00024992  0.0052251   0.000608051
 52  -3780.9724648662   0.002840727802 0.01908744  0.00009393  0.0089909   0.001134238
 53  -3780.9736936644  -0.001228798247 0.01809090  0.00009149  0.0075752   0.000957504
 54  -3780.9747076861  -0.001014021684 0.11676601  0.00060986  0.0061698   0.000750232
 55  -3780.9775215913  -0.002813905252 0.02736716  0.00014111  0.0015282   0.000278132
 56  -3780.9779202871  -0.000398695790 0.13809036  0.00055139  0.0023448   0.000286603
 57  -3780.9828461514  -0.004925864319 0.13224136  0.00052354  0.0113742   0.001161880
 58  -3780.9780374858   0.004808665635 0.10680702  0.00059497  0.0027234   0.000258818
 59  -3780.9761670108   0.001870475029 0.00612615  0.00003176  0.0039837   0.000325978
               *** Restarting incremental Fock matrix formation ***
                             ****Resetting KDIIS****
 60  -3780.9763340383  -0.000167027521 0.00133473  0.00000611  0.0035734   0.000325875
 61  -3780.9763690140  -0.000034975718 0.00774327  0.00003758  0.0034842   0.000312072
 62  -3780.9765630115  -0.000193997475 0.01924769  0.00010018  0.0030419   0.000284042
 63  -3780.9770050731  -0.000442061604 0.04504491  0.00026728  0.0022258   0.000226372
 64  -3780.9779583866  -0.000953313511 0.07638860  0.00043575  0.0018031   0.000270721
 65  -3780.9761491306   0.001809255986 0.01937575  0.00009251  0.0035272   0.000412860
 66  -3780.9766124758  -0.000463345189 0.00556648  0.00002970  0.0024701   0.000314414
 67  -3780.9767001903  -0.000087714448 0.03755561  0.00019470  0.0022275   0.000280631
 68  -3780.9772347917  -0.000534601432 0.05893069  0.00032012  0.0012628   0.000190783
 69  -3780.9781373230  -0.000902531339 0.05391117  0.00027963  0.0028568   0.000306660
 70  -3780.9773111175   0.000826205488 0.07161824  0.00035397  0.0012912   0.000149314
 71  -3780.9760768025   0.001234315095 0.01968505  0.00009304  0.0035923   0.000375953
 72  -3780.9765322804  -0.000455477953 0.01406158  0.00007132  0.0025754   0.000275101
 73  -3780.9762222089   0.000310071508 0.00224985  0.00001181  0.0032636   0.000340617
 74  -3780.9761588362   0.000063372701 0.08070490  0.00040939  0.0033801   0.000358934
 75  -3780.9774650149  -0.001306178653 0.03434067  0.00017389  0.0013037   0.000200351
 76  -3780.9779757040  -0.000510689136 0.03977930  0.00020881  0.0024365   0.000280981
 77  -3780.9773924870   0.000583216993 0.00307677  0.00002194  0.0013262   0.000169565
 78  -3780.9773749204   0.000017566589 0.01671745  0.00009298  0.0013672   0.000165469
 79  -3780.9776070720  -0.000232151574 0.09440573  0.00048663  0.0016459   0.000194094
               *** Restarting incremental Fock matrix formation ***
                             ****Resetting KDIIS****
 80  -3780.9759559085   0.001651163520 0.00151332  0.00000675  0.0037690   0.000420704
 81  -3780.9760018310  -0.000045922512 0.00789436  0.00003670  0.0036610   0.000395836
 82  -3780.9762133013  -0.000211470319 0.02024407  0.00009946  0.0031874   0.000349316
 83  -3780.9766776893  -0.000464388052 0.05019138  0.00027357  0.0022548   0.000239600
 84  -3780.9774836680  -0.000805978670 0.00404616  0.00002296  0.0014953   0.000198951
 85  -3780.9775454804  -0.000061812422 0.06830092  0.00036561  0.0015494   0.000204923
 86  -3780.9763601716   0.001185308827 0.00934080  0.00004660  0.0029540   0.000334028
 87  -3780.9765637442  -0.000203572625 0.03728735  0.00019043  0.0025355   0.000291490
 88  -3780.9771666629  -0.000602918640 0.02570054  0.00014217  0.0014727   0.000180709
 89  -3780.9774930521  -0.000326389270 0.02832494  0.00014589  0.0015235   0.000180153
 90  -3780.9779110205  -0.000417968373 0.02114767  0.00010633  0.0023837   0.000263196
 91  -3780.9775939826   0.000317037890 0.00659667  0.00003588  0.0017170   0.000177274
 92  -3780.9775054530   0.000088529601 0.04419481  0.00023667  0.0015915   0.000161632
 93  -3780.9769242094   0.000581243672 0.04943591  0.00026655  0.0019273   0.000189650
 94  -3780.9775808429  -0.000656633541 0.00300338  0.00001588  0.0017150   0.000166485
 95  -3780.9776212988  -0.000040455941 0.04223169  0.00020506  0.0017932   0.000173766
 96  -3780.9783861008  -0.000764802001 0.02455690  0.00011628  0.0036313   0.000345052
 97  -3780.9778919052   0.000494195661 0.00076900  0.00000458  0.0024046   0.000227547
 98  -3780.9778845967   0.000007308493 0.04988060  0.00027966  0.0023716   0.000227324
 99  -3780.9771654345   0.000719162213 0.00653113  0.00003317  0.0016657   0.000145164
               *** Restarting incremental Fock matrix formation ***
                             ****Resetting KDIIS****
100  -3780.9770819522   0.000083482280 0.00066125  0.00000301  0.0017968   0.000155800
101  -3780.9770899880  -0.000008035847 0.00485213  0.00002351  0.0017691   0.000151266
[...]
 24 N      7.3839     7.0000    -0.3839     3.4127     3.4127    -0.0000
 25 C      5.9382     6.0000     0.0618     3.9085     3.9085     0.0000
 26 H      0.8354     1.0000     0.1646     0.9729     0.9729     0.0000
 27 N      7.3521     7.0000    -0.3521     3.0058     3.0058     0.0000
 28 C      6.1117     6.0000    -0.1117     3.9371     3.9371     0.0000
 29 H      0.8620     1.0000     0.1380     0.9810     0.9810     0.0000
 30 H      0.6528     1.0000     0.3472     0.8795     0.8795    -0.0000
 31 H      0.6843     1.0000     0.3157     0.9003     0.9003     0.0000
 32 H      0.8217     1.0000     0.1783     0.9682     0.9682    -0.0000
 33 N      7.4183     7.0000    -0.4183     3.2139     3.2139    -0.0000
 34 C      5.9986     6.0000     0.0014     3.9163     3.9163    -0.0000
 35 C      5.7473     6.0000     0.2527     3.9214     3.9214    -0.0000
 36 O      8.6391     8.0000    -0.6391     1.7426     1.7426     0.0000
 37 C      6.1136     6.0000    -0.1136     3.9660     3.9660     0.0000
 38 C      6.2390     6.0000    -0.2390     3.9620     3.9620    -0.0000
 39 C      6.3708     6.0000    -0.3708     3.9509     3.9509    -0.0000
 40 H      0.8375     1.0000     0.1625     0.9736     0.9736     0.0000
 41 C      6.3679     6.0000    -0.3679     3.9501     3.9501     0.0000
 42 H      0.8819     1.0000     0.1181     0.9861     0.9861     0.0000
 43 H      0.8637     1.0000     0.1363     0.9814     0.9814     0.0000
 44 H      0.8779     1.0000     0.1221     0.9851     0.9851    -0.0000
 45 H      0.8786     1.0000     0.1214     0.9853     0.9853    -0.0000
 46 H      0.8768     1.0000     0.1232     0.9848     0.9848     0.0000
 47 H      0.7111     1.0000     0.2889     0.9165     0.9165     0.0000
 48 H      0.8457     1.0000     0.1543     0.9762     0.9762     0.0000
 49 H      0.8735     1.0000     0.1265     0.9840     0.9840    -0.0000
 50 H      0.8788     1.0000     0.1212     0.9853     0.9853     0.0000
 51 H      0.8786     1.0000     0.1214     0.9853     0.9853     0.0000
 52 N      7.2978     7.0000    -0.2978     3.0075     3.0075    -0.0000
 53 C      6.0276     6.0000    -0.0276     3.9181     3.9181     0.0000
 54 C      5.5972     6.0000     0.4028     3.9115     3.9115    -0.0000
 55 O      8.4791     8.0000    -0.4791     1.9968     1.9968    -0.0000
 56 H      0.8120     1.0000     0.1880     0.9647     0.9647     0.0000
 57 C      6.1654     6.0000    -0.1654     3.9052     3.9052    -0.0000
 58 H      0.6800     1.0000     0.3200     0.8976     0.8976    -0.0000
 59 H      0.8041     1.0000     0.1959     0.9616     0.9616    -0.0000
 60 C      6.2235     6.0000    -0.2235     3.9385     3.9385    -0.0000
 61 H      0.8414     1.0000     0.1586     0.9749     0.9749    -0.0000
 62 H      0.8422     1.0000     0.1578     0.9751     0.9751    -0.0000
 63 C      6.2425     6.0000    -0.2425     3.9413     3.9413     0.0000
 64 H      0.8516     1.0000     0.1484     0.9780     0.9780    -0.0000
 65 H      0.8347     1.0000     0.1653     0.9727     0.9727    -0.0000
 66 N      7.4144     7.0000    -0.4144     3.2140     3.2140    -0.0000
 67 C      6.0145     6.0000    -0.0145     3.9235     3.9235     0.0000
 68 C      5.5991     6.0000     0.4009     3.9077     3.9077     0.0000
 69 O      8.4943     8.0000    -0.4943     1.9867     1.9867    -0.0000
 70 C      6.1152     6.0000    -0.1152     3.9621     3.9621    -0.0000
 71 C      6.2408     6.0000    -0.2408     3.9638     3.9638    -0.0000
 72 C      6.3695     6.0000    -0.3695     3.9495     3.9495     0.0000
 73 H      0.8309     1.0000     0.1691     0.9714     0.9714    -0.0000
 74 C      6.3683     6.0000    -0.3683     3.9490     3.9490     0.0000
 75 H      0.8774     1.0000     0.1226     0.9850     0.9850     0.0000
 76 H      0.8746     1.0000     0.1254     0.9843     0.9843    -0.0000
 77 H      0.8760     1.0000     0.1240     0.9846     0.9846     0.0000
 78 H      0.8763     1.0000     0.1237     0.9847     0.9847    -0.0000
 79 H      0.8748     1.0000     0.1252     0.9843     0.9843    -0.0000
 80 H      0.7162     1.0000     0.2838     0.9194     0.9194    -0.0000
 81 H      0.8379     1.0000     0.1621     0.9737     0.9737    -0.0000
 82 H      0.8718     1.0000     0.1282     0.9836     0.9836    -0.0000
 83 H      0.8782     1.0000     0.1218     0.9852     0.9852     0.0000
 84 H      0.8765     1.0000     0.1235     0.9848     0.9848     0.0000
 85 N      7.4096     7.0000    -0.4096     3.2318     3.2318    -0.0000
 86 C      6.0167     6.0000    -0.0167     3.9271     3.9271     0.0000
 87 C      5.5961     6.0000     0.4039     3.9079     3.9079     0.0000
 88 O      8.4839     8.0000    -0.4839     1.9987     1.9987     0.0000
 89 C      6.2356     6.0000    -0.2356     3.9460     3.9460     0.0000
 90 H      0.8619     1.0000     0.1381     0.9809     0.9809     0.0000
 91 H      0.8385     1.0000     0.1615     0.9739     0.9739     0.0000
 92 C      6.2383     6.0000    -0.2383     3.9540     3.9540    -0.0000
 93 H      0.8578     1.0000     0.1422     0.9798     0.9798     0.0000
 94 H      0.8633     1.0000     0.1367     0.9813     0.9813     0.0000
 95 C      6.1143     6.0000    -0.1143     3.8660     3.8660    -0.0000
 96 H      0.8387     1.0000     0.1613     0.9740     0.9740     0.0000
 97 H      0.8383     1.0000     0.1617     0.9739     0.9739     0.0000
 98 N      7.3898     7.0000    -0.3898     3.2409     3.2409    -0.0000
 99 H      0.6770     1.0000     0.3230     0.8957     0.8957     0.0000
100 C      5.5089     6.0000     0.4911     3.9255     3.9255    -0.0000
101 N      7.5134     7.0000    -0.5134     3.2010     3.2010     0.0000
102 H      0.6268     1.0000     0.3732     0.8607     0.8607     0.0000
103 H      0.7127     1.0000     0.2873     0.9175     0.9175     0.0000
104 N      7.4834     7.0000    -0.4834     3.2358     3.2358    -0.0000
105 H      0.6876     1.0000     0.3124     0.9024     0.9024    -0.0000
106 H      0.6620     1.0000     0.3380     0.8858     0.8858     0.0000
107 H      0.7100     1.0000     0.2900     0.9159     0.9159     0.0000
108 H      0.8284     1.0000     0.1716     0.9706     0.9706     0.0000
109 N      7.4120     7.0000    -0.4120     3.2196     3.2196     0.0000
110 C      6.0116     6.0000    -0.0116     3.9202     3.9202     0.0000
111 C      5.5659     6.0000     0.4341     3.8834     3.8834     0.0000
112 O      8.4918     8.0000    -0.4918     2.0784     2.0784     0.0000
113 C      6.1147     6.0000    -0.1147     3.9605     3.9605     0.0000
114 C      6.2409     6.0000    -0.2409     3.9627     3.9627    -0.0000
115 C      6.3694     6.0000    -0.3694     3.9492     3.9492    -0.0000
116 H      0.8230     1.0000     0.1770     0.9687     0.9687     0.0000
117 C      6.3686     6.0000    -0.3686     3.9480     3.9480     0.0000
118 H      0.8766     1.0000     0.1234     0.9848     0.9848     0.0000
119 H      0.8716     1.0000     0.1284     0.9835     0.9835     0.0000
120 H      0.8756     1.0000     0.1244     0.9845     0.9845     0.0000
121 H      0.8761     1.0000     0.1239     0.9846     0.9846    -0.0000
122 H      0.8741     1.0000     0.1259     0.9841     0.9841     0.0000
123 H      0.7130     1.0000     0.2870     0.9176     0.9176     0.0000
124 H      0.8365     1.0000     0.1635     0.9733     0.9733     0.0000
125 H      0.8699     1.0000     0.1301     0.9831     0.9831     0.0000
126 H      0.8770     1.0000     0.1230     0.9849     0.9849    -0.0000
127 H      0.8755     1.0000     0.1245     0.9845     0.9845    -0.0000
128 N      7.4042     7.0000    -0.4042     3.2497     3.2497     0.0000
129 C      6.0389     6.0000    -0.0389     3.9194     3.9194     0.0000
130 C      5.6135     6.0000     0.3865     3.9247     3.9247     0.0000
131 O      8.5071     8.0000    -0.5071     1.9764     1.9764     0.0001
132 C      6.3746     6.0000    -0.3746     3.9468     3.9468     0.0000
133 C      5.9594     6.0000     0.0406     3.9394     3.9394     0.0000
134 O      8.6150     8.0000    -0.6150     1.7931     1.7931     0.0000
135 H      0.8694     1.0000     0.1306     0.9829     0.9829     0.0000
136 H      0.8742     1.0000     0.1258     0.9842     0.9842     0.0000
137 H      0.8721     1.0000     0.1279     0.9836     0.9836     0.0000
138 H      0.8699     1.0000     0.1301     0.9831     0.9831     0.0000
139 H      0.8311     1.0000     0.1689     0.9715     0.9715     0.0000
140 H      0.6090     1.0000     0.3910     0.8471     0.8471     0.0000
141 H      0.7014     1.0000     0.2986     0.9109     0.9109     0.0000
142 N      7.4155     7.0000    -0.4155     3.2620     3.2620     0.0000
143 C      6.0370     6.0000    -0.0370     3.8632     3.8606     0.0026
144 C      5.8761     6.0000     0.1239     3.8609     3.6055     0.2554
145 O      8.7989     8.0000    -0.7989     1.6657     1.6265     0.0392
146 C      6.2329     6.0000    -0.2329     3.9676     3.9670     0.0006
147 H      0.8839     1.0000     0.1161     0.9865     0.9864     0.0001
148 H      0.8973     1.0000     0.1027     0.9894     0.9894     0.0000
149 C      6.0467     6.0000    -0.0467     3.9945     3.9798     0.0147
150 C      6.1326     6.0000    -0.1326     3.9797     3.9775     0.0022
151 H      0.8638     1.0000     0.1362     0.9815     0.9814     0.0000
152 C      6.1926     6.0000    -0.1926     3.9730     3.9720     0.0010
153 H      0.8652     1.0000     0.1348     0.9818     0.9818     0.0000
154 C      5.8698     6.0000     0.1302     3.9136     3.9054     0.0081
155 C      6.1912     6.0000    -0.1912     3.9758     3.9746     0.0012
156 H      0.8634     1.0000     0.1366     0.9813     0.9813     0.0000
157 C      6.1619     6.0000    -0.1619     3.9802     3.9791     0.0011
158 H      0.8691     1.0000     0.1309     0.9829     0.9829     0.0000
159 O      8.5323     8.0000    -0.5323     1.9555     1.9554     0.0001
160 H      0.6578     1.0000     0.3422     0.8829     0.8829     0.0000
161 H      0.9144     1.0000     0.0856     0.9927     0.9919     0.0008
162 H      0.7309     1.0000     0.2691     0.9276     0.9276     0.0000
163 O      8.8463     8.0000    -0.8463     1.4832     1.4759     0.0072

  Mayer bond orders larger than 0.100000
B(  0-N ,  1-C ) :   0.9156 B(  0-N , 13-H ) :   0.7723 B(  0-N , 14-H ) :   0.7806 
B(  0-N , 15-H ) :   0.8108 B(  1-C ,  2-C ) :   0.9469 B(  1-C ,  4-C ) :   0.9945 
B(  1-C , 12-H ) :   0.9208 B(  2-C ,  3-O ) :   1.6997 B(  2-C , 16-N ) :   1.2280 
B(  3-O , 16-N ) :   0.1622 B(  4-C ,  5-H ) :   0.9377 B(  4-C ,  6-H ) :   0.9411 
B(  4-C ,  7-C ) :   0.9706 B(  7-C ,  8-O ) :   1.7236 B(  7-C ,  9-N ) :   1.1913 
B(  8-O ,  9-N ) :   0.1567 B(  9-N , 10-H ) :   0.8979 B(  9-N , 11-H ) :   0.8971 
B( 16-N , 17-C ) :   0.9643 B( 16-N , 31-H ) :   0.8430 B( 17-C , 18-C ) :   0.9545 
B( 17-C , 20-C ) :   0.9720 B( 17-C , 32-H ) :   0.9338 B( 18-C , 19-O ) :   1.7449 
B( 18-C , 33-N ) :   1.1721 B( 19-O , 33-N ) :   0.1440 B( 20-C , 21-H ) :   0.9568 
B( 20-C , 22-H ) :   0.9484 B( 20-C , 23-C ) :   1.0192 B( 23-C , 24-N ) :   1.1857 
B( 23-C , 25-C ) :   0.1085 B( 23-C , 28-C ) :   1.5826 B( 24-N , 25-C ) :   1.2109 
B( 24-N , 30-H ) :   0.8255 B( 25-C , 26-H ) :   0.9467 B( 25-C , 27-N ) :   1.5903 
B( 27-N , 28-C ) :   1.2631 B( 28-C , 29-H ) :   0.9617 B( 33-N , 34-C ) :   0.9603 
B( 33-N , 47-H ) :   0.8816 B( 34-C , 35-C ) :   0.8829 B( 34-C , 37-C ) :   0.9757 
B( 34-C , 40-H ) :   0.9394 B( 35-C , 36-O ) :   1.4097 B( 35-C , 52-N ) :   0.9879 
B( 35-C , 57-C ) :   0.3933 B( 35-C , 58-H ) :   0.1962 B( 36-O , 52-N ) :   0.1033 
B( 36-O , 57-C ) :   0.1019 B( 37-C , 38-C ) :   0.9958 B( 37-C , 41-C ) :   1.0081 
B( 37-C , 48-H ) :   0.9404 B( 38-C , 39-C ) :   1.0166 B( 38-C , 42-H ) :   0.9670 
B( 38-C , 43-H ) :   0.9609 B( 39-C , 44-H ) :   0.9742 B( 39-C , 45-H ) :   0.9748 
B( 39-C , 46-H ) :   0.9746 B( 41-C , 49-H ) :   0.9734 B( 41-C , 50-H ) :   0.9745 
B( 41-C , 51-H ) :   0.9746 B( 52-N , 53-C ) :   0.9430 B( 52-N , 57-C ) :   0.8423 
B( 53-C , 54-C ) :   0.9490 B( 53-C , 56-H ) :   0.9333 B( 53-C , 63-C ) :   0.9859 
B( 54-C , 55-O ) :   1.7475 B( 54-C , 66-N ) :   1.1706 B( 55-O , 66-N ) :   0.1457 
B( 57-C , 58-H ) :   0.6234 B( 57-C , 59-H ) :   0.9196 B( 57-C , 60-C ) :   0.9714 
B( 60-C , 61-H ) :   0.9558 B( 60-C , 62-H ) :   0.9591 B( 60-C , 63-C ) :   1.0023 
B( 63-C , 64-H ) :   0.9604 B( 63-C , 65-H ) :   0.9512 B( 66-N , 67-C ) :   0.9625 
B( 66-N , 80-H ) :   0.8866 B( 67-C , 68-C ) :   0.9529 B( 67-C , 70-C ) :   0.9706 
B( 67-C , 73-H ) :   0.9359 B( 68-C , 69-O ) :   1.7297 B( 68-C , 85-N ) :   1.1839 
B( 69-O , 85-N ) :   0.1500 B( 70-C , 71-C ) :   0.9960 B( 70-C , 74-C ) :   1.0082 
B( 70-C , 81-H ) :   0.9365 B( 71-C , 72-C ) :   1.0161 B( 71-C , 75-H ) :   0.9656 
B( 71-C , 76-H ) :   0.9627 B( 72-C , 77-H ) :   0.9738 B( 72-C , 78-H ) :   0.9744 
B( 72-C , 79-H ) :   0.9741 B( 74-C , 82-H ) :   0.9730 B( 74-C , 83-H ) :   0.9744 
B( 74-C , 84-H ) :   0.9740 B( 85-N , 86-C ) :   0.9646 B( 85-N ,107-H ) :   0.8799 
B( 86-C , 87-C ) :   0.9526 B( 86-C , 89-C ) :   0.9830 B( 86-C ,108-H ) :   0.9353 
B( 87-C , 88-O ) :   1.7402 B( 87-C ,109-N ) :   1.1743 B( 88-O ,109-N ) :   0.1452 
B( 89-C , 90-H ) :   0.9626 B( 89-C , 91-H ) :   0.9465 B( 89-C , 92-C ) :   1.0066 
B( 92-C , 93-H ) :   0.9609 B( 92-C , 94-H ) :   0.9595 B( 92-C , 95-C ) :   1.0012 
B( 95-C , 96-H ) :   0.9487 B( 95-C , 97-H ) :   0.9544 B( 95-C , 98-N ) :   0.9280 
B( 98-N , 99-H ) :   0.8698 B( 98-N ,100-C ) :   1.2693 B(100-C ,101-N ) :   1.2913 
B(100-C ,104-N ) :   1.3224 B(101-N ,102-H ) :   0.8442 B(101-N ,103-H ) :   0.9006 
B(104-N ,105-H ) :   0.8817 B(104-N ,106-H ) :   0.8658 B(109-N ,110-C ) :   0.9638 
B(109-N ,123-H ) :   0.8843 B(110-C ,111-C ) :   0.9567 B(110-C ,113-C ) :   0.9691 
B(110-C ,116-H ) :   0.9324 B(111-C ,112-O ) :   1.6377 B(111-C ,128-N ) :   1.2247 
B(112-O ,128-N ) :   0.1423 B(112-O ,140-H ) :   0.1653 B(113-C ,114-C ) :   0.9959 
B(113-C ,117-C ) :   1.0081 B(113-C ,124-H ) :   0.9367 B(114-C ,115-C ) :   1.0162 
B(114-C ,118-H ) :   0.9655 B(114-C ,119-H ) :   0.9624 B(115-C ,120-H ) :   0.9737 
B(115-C ,121-H ) :   0.9744 B(115-C ,122-H ) :   0.9739 B(117-C ,125-H ) :   0.9726 
B(117-C ,126-H ) :   0.9741 B(117-C ,127-H ) :   0.9737 B(128-N ,129-C ) :   0.9530 
B(128-N ,141-H ) :   0.8755 B(129-C ,130-C ) :   0.9495 B(129-C ,133-C ) :   0.9652 
B(129-C ,139-H ) :   0.9379 B(130-C ,131-O ) :   1.7025 B(130-C ,142-N ) :   1.2269 
B(131-O ,142-N ) :   0.1646 B(132-C ,133-C ) :   1.0001 B(132-C ,135-H ) :   0.9720 
B(132-C ,136-H ) :   0.9739 B(132-C ,137-H ) :   0.9684 B(133-C ,134-O ) :   0.9854 
B(133-C ,138-H ) :   0.9505 B(134-O ,140-H ) :   0.6670 B(142-N ,143-C ) :   0.9279 
B(142-N ,162-H ) :   0.8838 B(143-C ,144-C ) :   0.8725 B(143-C ,146-C ) :   0.9792 
B(143-C ,161-H ) :   0.9513 B(144-C ,145-O ) :   1.3572 B(144-C ,163-O ) :   1.1933 
B(145-O ,163-O ) :   0.1223 B(146-C ,147-H ) :   0.9555 B(146-C ,148-H ) :   0.9710 
B(146-C ,149-C ) :   1.0061 B(149-C ,150-C ) :   1.3965 B(149-C ,157-C ) :   1.3652 
B(150-C ,151-H ) :   0.9630 B(150-C ,152-C ) :   1.4742 B(150-C ,155-C ) :   0.1034 
B(152-C ,153-H ) :   0.9639 B(152-C ,154-C ) :   1.3437 B(154-C ,155-C ) :   1.3844 
B(154-C ,159-O ) :   0.9846 B(155-C ,156-H ) :   0.9623 B(155-C ,157-C ) :   1.4663 
B(157-C ,158-H ) :   0.9644 B(159-O ,160-H ) :   0.8618 

-------
TIMINGS
-------

Total SCF time: 0 days 2 hours 37 min 21 sec 

Total time                  ....    9441.918 sec
Sum of individual times     ....    9382.015 sec  ( 99.4%)

Fock matrix formation       ....    9103.425 sec  ( 96.4%)
Diagonalization             ....     267.034 sec  (  2.8%)
Density matrix formation    ....      10.548 sec  (  0.1%)
Population analysis         ....       0.450 sec  (  0.0%)
Initial guess               ....       0.558 sec  (  0.0%)
Orbital Transformation      ....       0.000 sec  (  0.0%)
Orbital Orthonormalization  ....       0.000 sec  (  0.0%)
DIIS solution               ....       0.000 sec  (  0.0%)


-------------------------------------------------------------------------------
                          DFT DISPERSION CORRECTION                            
                                                                               
                              DFTD3 V3.1  Rev 1                                
                          USING Becke-Johnson damping                          
-------------------------------------------------------------------------------
Hartree-Fock is recognized
Active option DFTDOPT                   ...         4   

molecular C6(AA) [au] = 237060.211656 


            DFT-D V3
 parameters
 using HF/MINIX parameters
 s6 scaling factor         :     1.0000 
 a1 scaling factor         :     0.4171 
 s8 scaling factor         :     0.8777 
 a2 scaling factor         :     2.9149 
 ad hoc parameters k1-k3   :    16.0000     1.3333    -4.0000 

 Edisp/kcal,au: -546.483028718754  -0.870876047315 
 E6   /kcal   : -313.710590167 
 E8   /kcal   : -232.772438552 
 % E8         :  42.594632645 

-------------------------   ----------------
Dispersion correction           -0.870876047
-------------------------   ----------------

------------------   -----------------
gCP+bas correction        -0.680751041
------------------   -----------------
----------------------------   ----------------
Total correction to HF/MINIX       -1.551627088
----------------------------   ----------------


-------------------------   --------------------
FINAL SINGLE POINT ENERGY     -3782.481004492766
-------------------------   --------------------


                            ***************************************
                            *     ORCA property calculations      *
                            ***************************************

                                    ---------------------
                                    Active property flags
                                    ---------------------
   (+) Dipole Moment


------------------------------------------------------------------------------
                       ORCA ELECTRIC PROPERTIES CALCULATION
------------------------------------------------------------------------------

Dipole Moment Calculation                       ... on
Quadrupole Moment Calculation                   ... off
Polarizability Calculation                      ... off
GBWName                                         ... NHIPIRITY.gbw
Electron density file                           ... NHIPIRITY.scfp
The origin for moment calculation is the CENTER OF MASS  = (24.413134,  0.163490 20.544766)

-------------
DIPOLE MOMENT
-------------
                                X             Y             Z
Electronic contribution:    -47.75806     -20.60794      -7.83194
Nuclear contribution   :    -18.60408      18.98983     -40.04666
                        -----------------------------------------
Total Dipole Moment    :    -66.36214      -1.61811     -47.87860
                        -----------------------------------------
Magnitude (a.u.)       :     81.84689
Magnitude (Debye)      :    208.03825



--------------------
Rotational spectrum 
--------------------
 
Rotational constants in cm-1:     0.001822     0.000149     0.000139 
Rotational constants in MHz :    54.631788     4.454907     4.165311 

 Dipole components along the rotational axes: 
x,y,z [a.u.] :    81.593206     6.431851    -0.304426 
x,y,z [Debye]:   207.393448    16.348466    -0.773791 

 

Timings for individual modules:

Sum of individual times         ...     9445.976 sec (= 157.433 min)
GTO integral calculation        ...        2.508 sec (=   0.042 min)   0.0 %
SCF iterations                  ...     9443.468 sec (= 157.391 min) 100.0 %
                             ****ORCA TERMINATED NORMALLY****
TOTAL RUN TIME: 0 days 2 hours 37 minutes 32 seconds 850 msec
