/home/zfg2013/blue_zfg2013/INPS
c0711a-s29.ufhpc
Thu Aug  3 23:51:06 EDT 2023

                                 *****************
                                 * O   R   C   A *
                                 *****************

           --- An Ab Initio, DFT and Semiempirical electronic structure package ---

                  #######################################################
                  #                        -***-                        #
                  #          Department of theory and spectroscopy      #
                  #               Directorship: Frank Neese             #
                  #        Max Planck Institute fuer Kohlenforschung    #
                  #                Kaiser Wilhelm Platz 1               #
                  #                 D-45470 Muelheim/Ruhr               #
                  #                      Germany                        #
                  #                                                     #
                  #                  All rights reserved                #
                  #                        -***-                        #
                  #######################################################


                         Program Version 4.2.1 -  RELEASE  -


 With contributions from (in alphabetic order):
   Daniel Aravena         : Magnetic Suceptibility
   Michael Atanasov       : Ab Initio Ligand Field Theory (pilot matlab implementation)
   Alexander A. Auer      : GIAO ZORA, VPT2
   Ute Becker             : Parallelization
   Giovanni Bistoni       : ED, misc. LED, open-shell LED, HFLD
   Martin Brehm           : Molecular dynamics
   Dmytro Bykov           : SCF Hessian
   Vijay G. Chilkuri      : MRCI spin determinant printing, contributions to CSF-ICE
   Dipayan Datta          : RHF DLPNO-CCSD density
   Achintya Kumar Dutta   : EOM-CC, STEOM-CC
   Dmitry Ganyushin       : Spin-Orbit,Spin-Spin,Magnetic field MRCI
   Miquel Garcia          : C-PCM Hessian, Gaussian charge scheme
   Yang Guo               : DLPNO-NEVPT2, CIM, IAO-localization
   Andreas Hansen         : Spin unrestricted coupled pair/coupled cluster methods
   Benjamin Helmich-Paris : CASSCF linear response (MC-RPA)
   Lee Huntington         : MR-EOM, pCC
   Robert Izsak           : Overlap fitted RIJCOSX, COSX-SCS-MP3, EOM
   Christian Kollmar      : KDIIS, OOCD, Brueckner-CCSD(T), CCSD density
   Simone Kossmann        : Meta GGA functionals, TD-DFT gradient, OOMP2, MP2 Hessian
   Martin Krupicka        : AUTO-CI
   Lucas Lang             : DCDCAS
   Dagmar Lenk            : GEPOL surface, SMD
   Dimitrios Liakos       : Extrapolation schemes; Compound Job, initial MDCI parallelization
   Dimitrios Manganas     : Further ROCIS development; embedding schemes
   Dimitrios Pantazis     : SARC Basis sets
   Taras Petrenko         : DFT Hessian,TD-DFT gradient, ASA, ECA, R-Raman, ABS, FL, XAS/XES, NRVS
   Peter Pinski           : DLPNO-MP2, DLPNO-MP2 Gradient
   Christoph Reimann      : Effective Core Potentials
   Marius Retegan         : Local ZFS, SOC
   Christoph Riplinger    : Optimizer, TS searches, QM/MM, DLPNO-CCSD(T), (RO)-DLPNO pert. Triples
   Tobias Risthaus        : Range-separated hybrids, TD-DFT gradient, RPA, STAB
   Michael Roemelt        : Original ROCIS implementation
   Masaaki Saitow         : Open-shell DLPNO-CCSD energy and density
   Barbara Sandhoefer     : DKH picture change effects
   Avijit Sen             : IP-ROCIS
   Kantharuban Sivalingam : CASSCF convergence, NEVPT2, FIC-MRCI
   Bernardo de Souza      : ESD, SOC TD-DFT
   Georgi Stoychev        : AutoAux, RI-MP2 NMR
   Willem Van den Heuvel  : Paramagnetic NMR
   Boris Wezisla          : Elementary symmetry handling
   Frank Wennmohs         : Technical directorship


 We gratefully acknowledge several colleagues who have allowed us to
 interface, adapt or use parts of their codes:
   Stefan Grimme, W. Hujo, H. Kruse,             : VdW corrections, initial TS optimization,
                  C. Bannwarth                     DFT functionals, gCP, sTDA/sTD-DF
   Ed Valeev, F. Pavosevic, A. Kumar             : LibInt (2-el integral package), F12 methods
   Garnet Chan, S. Sharma, J. Yang, R. Olivares  : DMRG
   Ulf Ekstrom                                   : XCFun DFT Library
   Mihaly Kallay                                 : mrcc  (arbitrary order and MRCC methods)
   Andreas Klamt, Michael Diedenhofen            : otool_cosmo (COSMO solvation model)
   Jiri Pittner, Ondrej Demel                    : Mk-CCSD
   Frank Weinhold                                : gennbo (NPA and NBO analysis)
   Christopher J. Cramer and Donald G. Truhlar   : smd solvation model
   Lars Goerigk                                  : TD-DFT with DH, B97 family of functionals
   V. Asgeirsson, H. Jonsson                     : NEB implementation
   FAccTs GmbH                                   : IRC, NEB, NEB-TS, Multilevel, MM, QM/MM, CI optimization
   S Lehtola, MJT Oliveira, MAL Marques          : LibXC Library


 Your calculation uses the libint2 library for the computation of 2-el integrals
 For citations please refer to: http://libint.valeyev.net

 Your ORCA version has been built with support for libXC version: 4.2.3
 For citations please refer to: https://tddft.org/programs/libxc/

 This ORCA versions uses:
   CBLAS   interface :  Fast vector & matrix operations
   LAPACKE interface :  Fast linear algebra routines
   SCALAPACK package :  Parallel linear algebra routines


Your calculation utilizes the geometrical counterpoise correction gCP
Please cite in your paper:
H.Kruse, S. Grimme J.Chem.Phys., 136, (2012), 154101 
   

Your calculation utilizes the atom-pairwise dispersion correction
with the Becke-Johnson damping scheme (D3BJ)
Cite in your paper:
S.Grimme, S.Ehrlich, L.Goerigk, J Comput Chem, (2011), 32, 1456–1465 
S.Grimme, J.Antony, S.Ehrlich and H.Krieg, J.Chem.Phys., 132, (2010), 154104 
   

Your calculation utilizes the SMD solvation module
Please cite in your paper:
A.V. Marenich, C.J. Cramer, D.G. Truhlar J. Phys. Chem. B, 113, (2009), 6378 

----- Orbital basis set information -----
Your calculation utilizes the basis: MINIX,
   a combination of small basis sets by S. Grimme (see manual for definitions).

================================================================================
                                        WARNINGS
                       Please study these warnings very carefully!
================================================================================


WARNING: your system is open-shell and RHF/RKS was chosen
  ===> : WILL SWITCH to UHF/UKS


INFO   : the flag for use of LIBINT has been found!

================================================================================
                                       INPUT FILE
================================================================================
NAME = CAGWESSNM.inp
|  1> !HF-3c CPCM KDIIS SmallPrint
|  2> %PAL NPROCS 15 END
|  3> %maxcore 10000
|  4> %CPCM
|  5> SMD TRUE
|  6> SMDSOLVENT "WATER"
|  7> END
|  8> 
|  9> %scf
| 10> SCFmode Direct
| 11> maxiter 10000
| 12> 
| 13> end
| 14> 
| 15> %geom
| 16> 
| 17> Constraints
| 18> {C 2 C}
| 19> {C 15 C}
| 20> {C 25 C}
| 21> {C 32 C}
| 22> {C 56 C}
| 23> {C 71 C}
| 24> {C 82 C}
| 25> {C 93 C}
| 26> {C 107 C}
| 27> 
| 28> end
| 29> 
| 30> maxiter 10000
| 31> 
| 32> end
| 33> 
| 34> * xyz 0 2
| 35>    N        0.00000         0.00000         0.00000
| 36>    C        1.46558         0.00000         0.00000
| 37>    C        1.88737         0.00000         1.48155
| 38>    O        1.07572         0.00000         2.40700
| 39>    H        1.78897         -0.94074         -0.46356
| 40>    C        2.02524         1.21477         -0.75197
| 41>    H        1.50229         1.35735         -1.70252
| 42>    S        3.80281         1.07033         -1.14996
| 43>    H        1.88346         2.13119         -0.16676
| 44>    H        3.86529         2.15326         -1.94061
| 45>    H        -0.46146         0.13304         0.89717
| 46>    H        -0.34000         0.08381         -0.95801
| 47>    H        -0.34000         0.94706         -0.16699
| 48>    N        3.18695         -0.00000         1.80818
| 49>    C        3.58556         0.00022         3.20829
| 50>    C        5.12227         0.00016         3.26404
| 51>    O        5.83352         -0.00004         2.26084
| 52>    H        3.90069         -0.09147         1.09029
| 53>    H        3.22148         0.92595         3.66873
| 54>    C        3.01969         -1.20794         3.94537
| 55>    H        1.92642         -1.22968         3.89044
| 56>    H        3.39285         -2.14290         3.51262
| 57>    H        3.30284         -1.19674         5.00322
| 58>    N        5.74976         0.00034         4.44804
| 59>    C        7.19556         0.00007         4.50050
| 60>    C        7.66474         0.00034         5.95196
| 61>    O        6.89968         0.00073         6.91322
| 62>    H        7.56621         -0.89612         3.99146
| 63>    H        7.56746         0.89287         3.98985
| 64>    H        5.24522         -0.00186         5.32999
| 65>    N        8.97504         0.00015         6.23254
| 66>    C        9.42520         0.00063         7.62517
| 67>    C        10.96281         0.00026         7.58180
| 68>    O        11.60297         -0.00034         6.53033
| 69>    C        8.89925         -1.22487         8.38763
| 70>    H        9.47642         -2.11689         8.10951
| 71>    H        7.86385         -1.43744         8.09049
| 72>    C        8.92162         -1.06173         9.87909
| 73>    C        9.82710         -1.62176         10.75972
| 74>    N        9.48477         -1.24124         12.02980
| 75>    H        9.96718         -1.51843         12.87347
| 76>    C        8.36799         -0.43972         12.00124
| 77>    C        7.98783         -0.31270         10.66530
| 78>    C        6.84697         0.45768         10.36045
| 79>    H        6.51575         0.57533         9.33100
| 80>    C        6.13096         1.06776         11.39665
| 81>    H        5.24739         1.65588         11.16029
| 82>    C        6.53641         0.92302         12.72097
| 83>    H        5.96339         1.40169         13.51188
| 84>    C        7.66518         0.16647         13.04971
| 85>    H        7.97365         0.05127         14.08350
| 86>    H        10.67885         -2.26817         10.59095
| 87>    H        9.65276         -0.27364         5.52588
| 88>    H        9.08657         0.93812         8.08265
| 89>    N        11.66526         0.00057         8.72292
| 90>    C        13.12526         -0.00001         8.68173
| 91>    C        13.60139         0.00057         10.15163
| 92>    O        12.81915         0.00135         11.10263
| 93>    C        13.66269         1.19633         7.88363
| 94>    H        12.87788         1.64086         7.25783
| 95>    H        13.98271         1.99855         8.56057
| 96>    C        14.81185         0.78354         6.96434
| 97>    H        15.57745         0.20669         7.49382
| 98>    H        14.43792         0.14734         6.15396
| 99>    C        15.48253         1.99751         6.39234
|100>    O        16.05814         2.85810         7.03825
|101>    O        15.40090         2.06851         5.05405
|102>    H        11.23136         0.02579         9.64305
|103>    H        13.43251         -0.95241         8.23237
|104>    N        14.91185         0.00021         10.43142
|105>    C        15.36214         0.00097         11.82155
|106>    C        16.90085         0.00031         11.79963
|107>    O        17.55860         -0.00067         10.75985
|108>    H        15.03413         0.93808         12.28872
|109>    C        14.83601         -1.20439         12.61220
|110>    H        13.75254         -1.30348         12.49943
|111>    H        15.30059         -2.13623         12.26847
|112>    O        15.11340         -1.06092         14.01042
|113>    H        14.55635         -1.71828         14.46745
|114>    H        15.63476         -0.04268         9.71716
|115>    N        17.58730         0.00081         12.95045
|116>    C        19.04840         -0.00003         12.92964
|117>    C        19.52260         0.00083         14.39361
|118>    O        18.74966         0.00201         15.35088
|119>    H        19.38517         -0.93723         12.46893
|120>    C        19.62786         1.20518         12.17695
|121>    H        19.17256         1.30414         11.18733
|122>    H        19.45189         2.13712         12.72726
|123>    O        21.04098         1.06160         11.98986
|124>    H        21.29457         1.71884         11.31529
|125>    H        17.14355         0.04387         13.86469
|126>    N        20.83307         0.00030         14.67340
|127>    C        21.28456         0.00134         16.06726
|128>    C        22.82437         0.00036         16.01038
|129>    O        23.45291         -0.00102         14.95115
|130>    C        20.76847         -1.22923         16.81243
|131>    H        19.69247         -1.35570         16.64154
|132>    H        21.27045         -2.13603         16.45324
|133>    C        20.97263         -1.12264         18.30503
|134>    O        21.44535         -0.14646         18.87688
|135>    N        20.61446         -2.23750         19.00359
|136>    H        20.15540         -3.03132         18.57770
|137>    H        20.70557         -2.21793         20.01161
|138>    H        20.94137         0.93355         16.53154
|139>    H        21.53176         -0.20408         13.96255
|140>    N        23.53675         0.00100         17.14534
|141>    C        24.99442         -0.00015         17.09150
|142>    C        25.48404         0.00099         18.54873
|143>    O        24.72405         0.00256         19.51494
|144>    C        25.50640         1.22715         16.32508
|145>    C        26.97501         1.09571         15.92657
|146>    S        27.49074         2.54949         14.95714
|147>    C        29.17584         2.02852         14.55740
|148>    H        25.31752         -0.92664         16.60204
|149>    H        25.36155         2.12877         16.93589
|150>    H        24.90044         1.36023         15.41892
|151>    H        27.12105         0.19575         15.32019
|152>    H        27.61664         1.03427         16.80907
|153>    H        29.75290         1.86986         15.47206
|154>    H        29.66443         2.80947         13.96877
|155>    H        29.15923         1.10827         13.96772
|156>    H        23.09738         0.44612         17.94628
|157>    O        26.82133         0.00018         18.74072
|158> *
|159> 
|160>                          ****END OF INPUT****
================================================================================

                       ****************************
                       * Single Point Calculation *
                       ****************************

---------------------------------
CARTESIAN COORDINATES (ANGSTROEM)
---------------------------------
  N      0.000000    0.000000    0.000000
  C      1.465580    0.000000    0.000000
  C      1.887370    0.000000    1.481550
  O      1.075720    0.000000    2.407000
  H      1.788970   -0.940740   -0.463560
  C      2.025240    1.214770   -0.751970
  H      1.502290    1.357350   -1.702520
  S      3.802810    1.070330   -1.149960
  H      1.883460    2.131190   -0.166760
  H      3.865290    2.153260   -1.940610
  H     -0.461460    0.133040    0.897170
  H     -0.340000    0.083810   -0.958010
  H     -0.340000    0.947060   -0.166990
  N      3.186950   -0.000000    1.808180
  C      3.585560    0.000220    3.208290
  C      5.122270    0.000160    3.264040
  O      5.833520   -0.000040    2.260840
  H      3.900690   -0.091470    1.090290
  H      3.221480    0.925950    3.668730
  C      3.019690   -1.207940    3.945370
  H      1.926420   -1.229680    3.890440
  H      3.392850   -2.142900    3.512620
  H      3.302840   -1.196740    5.003220
  N      5.749760    0.000340    4.448040
  C      7.195560    0.000070    4.500500
  C      7.664740    0.000340    5.951960
  O      6.899680    0.000730    6.913220
  H      7.566210   -0.896120    3.991460
  H      7.567460    0.892870    3.989850
  H      5.245220   -0.001860    5.329990
  N      8.975040    0.000150    6.232540
  C      9.425200    0.000630    7.625170
  C     10.962810    0.000260    7.581800
  O     11.602970   -0.000340    6.530330
  C      8.899250   -1.224870    8.387630
  H      9.476420   -2.116890    8.109510
  H      7.863850   -1.437440    8.090490
  C      8.921620   -1.061730    9.879090
  C      9.827100   -1.621760   10.759720
  N      9.484770   -1.241240   12.029800
  H      9.967180   -1.518430   12.873470
  C      8.367990   -0.439720   12.001240
  C      7.987830   -0.312700   10.665300
  C      6.846970    0.457680   10.360450
  H      6.515750    0.575330    9.331000
  C      6.130960    1.067760   11.396650
  H      5.247390    1.655880   11.160290
  C      6.536410    0.923020   12.720970
  H      5.963390    1.401690   13.511880
  C      7.665180    0.166470   13.049710
  H      7.973650    0.051270   14.083500
  H     10.678850   -2.268170   10.590950
  H      9.652760   -0.273640    5.525880
  H      9.086570    0.938120    8.082650
  N     11.665260    0.000570    8.722920
  C     13.125260   -0.000010    8.681730
  C     13.601390    0.000570   10.151630
  O     12.819150    0.001350   11.102630
  C     13.662690    1.196330    7.883630
  H     12.877880    1.640860    7.257830
  H     13.982710    1.998550    8.560570
  C     14.811850    0.783540    6.964340
  H     15.577450    0.206690    7.493820
  H     14.437920    0.147340    6.153960
  C     15.482530    1.997510    6.392340
  O     16.058140    2.858100    7.038250
  O     15.400900    2.068510    5.054050
  H     11.231360    0.025790    9.643050
  H     13.432510   -0.952410    8.232370
  N     14.911850    0.000210   10.431420
  C     15.362140    0.000970   11.821550
  C     16.900850    0.000310   11.799630
  O     17.558600   -0.000670   10.759850
  H     15.034130    0.938080   12.288720
  C     14.836010   -1.204390   12.612200
  H     13.752540   -1.303480   12.499430
  H     15.300590   -2.136230   12.268470
  O     15.113400   -1.060920   14.010420
  H     14.556350   -1.718280   14.467450
  H     15.634760   -0.042680    9.717160
  N     17.587300    0.000810   12.950450
  C     19.048400   -0.000030   12.929640
  C     19.522600    0.000830   14.393610
  O     18.749660    0.002010   15.350880
  H     19.385170   -0.937230   12.468930
  C     19.627860    1.205180   12.176950
  H     19.172560    1.304140   11.187330
  H     19.451890    2.137120   12.727260
  O     21.040980    1.061600   11.989860
  H     21.294570    1.718840   11.315290
  H     17.143550    0.043870   13.864690
  N     20.833070    0.000300   14.673400
  C     21.284560    0.001340   16.067260
  C     22.824370    0.000360   16.010380
  O     23.452910   -0.001020   14.951150
  C     20.768470   -1.229230   16.812430
  H     19.692470   -1.355700   16.641540
  H     21.270450   -2.136030   16.453240
  C     20.972630   -1.122640   18.305030
  O     21.445350   -0.146460   18.876880
  N     20.614460   -2.237500   19.003590
  H     20.155400   -3.031320   18.577700
  H     20.705570   -2.217930   20.011610
  H     20.941370    0.933550   16.531540
  H     21.531760   -0.204080   13.962550
  N     23.536750    0.001000   17.145340
  C     24.994420   -0.000150   17.091500
  C     25.484040    0.000990   18.548730
  O     24.724050    0.002560   19.514940
  C     25.506400    1.227150   16.325080
  C     26.975010    1.095710   15.926570
  S     27.490740    2.549490   14.957140
  C     29.175840    2.028520   14.557400
  H     25.317520   -0.926640   16.602040
  H     25.361550    2.128770   16.935890
  H     24.900440    1.360230   15.418920
  H     27.121050    0.195750   15.320190
  H     27.616640    1.034270   16.809070
  H     29.752900    1.869860   15.472060
  H     29.664430    2.809470   13.968770
  H     29.159230    1.108270   13.967720
  H     23.097380    0.446120   17.946280
  O     26.821330    0.000180   18.740720

----------------------------
CARTESIAN COORDINATES (A.U.)
----------------------------
  NO LB      ZA    FRAG     MASS         X           Y           Z
   0 N     7.0000    0    14.007    0.000000    0.000000    0.000000
   1 C     6.0000    0    12.011    2.769545    0.000000    0.000000
   2 C     6.0000    0    12.011    3.566612    0.000000    2.799724
   3 O     8.0000    0    15.999    2.032816    0.000000    4.548571
   4 H     1.0000    0     1.008    3.380663   -1.777741   -0.876001
   5 C     6.0000    0    12.011    3.827149    2.295583   -1.421017
   6 H     1.0000    0     1.008    2.838917    2.565020   -3.217297
   7 S    16.0000    0    32.060    7.186269    2.022631   -2.173109
   8 H     1.0000    0     1.008    3.559224    4.027365   -0.315131
   9 H     1.0000    0     1.008    7.304340    4.069072   -3.667221
  10 H     1.0000    0     1.008   -0.872033    0.251409    1.695406
  11 H     1.0000    0     1.008   -0.642507    0.158378   -1.810377
  12 H     1.0000    0     1.008   -0.642507    1.789684   -0.315565
  13 N     7.0000    0    14.007    6.022463   -0.000000    3.416965
  14 C     6.0000    0    12.011    6.775726    0.000416    6.062789
  15 C     6.0000    0    12.011    9.679687    0.000302    6.168142
  16 O     8.0000    0    15.999   11.023755   -0.000076    4.272368
  17 H     1.0000    0     1.008    7.371236   -0.172853    2.060350
  18 H     1.0000    0     1.008    6.087715    1.749792    6.932895
  19 C     6.0000    0    12.011    5.706387   -2.282676    7.455669
  20 H     1.0000    0     1.008    3.640406   -2.323758    7.351866
  21 H     1.0000    0     1.008    6.411557   -4.049494    6.637890
  22 H     1.0000    0     1.008    6.241463   -2.261511    9.454716
  23 N     7.0000    0    14.007   10.865472    0.000643    8.405577
  24 C     6.0000    0    12.011   13.597638    0.000132    8.504712
  25 C     6.0000    0    12.011   14.484259    0.000643   11.247574
  26 O     8.0000    0    15.999   13.038506    0.001380   13.064093
  27 H     1.0000    0     1.008   14.298065   -1.693421    7.542766
  28 H     1.0000    0     1.008   14.300427    1.687280    7.539724
  29 H     1.0000    0     1.008    9.912029   -0.003515   10.072221
  30 N     7.0000    0    14.007   16.960368    0.000283   11.777794
  31 C     6.0000    0    12.011   17.811047    0.001191   14.409483
  32 C     6.0000    0    12.011   20.716709    0.000491   14.327526
  33 O     8.0000    0    15.999   21.926436   -0.000643   12.340535
  34 C     6.0000    0    12.011   16.817145   -2.314669   15.850324
  35 H     1.0000    0     1.008   17.907839   -4.000342   15.324753
  36 H     1.0000    0     1.008   14.860523   -2.716368   15.288810
  37 C     6.0000    0    12.011   16.859418   -2.006379   18.668775
  38 C     6.0000    0    12.011   18.570528   -3.064682   20.332924
  39 N     7.0000    0    14.007   17.923618   -2.345604   22.733027
  40 H     1.0000    0     1.008   18.835241   -2.869417   24.327333
  41 C     6.0000    0    12.011   15.813209   -0.830950   22.679057
  42 C     6.0000    0    12.011   15.094811   -0.590917   20.154496
  43 C     6.0000    0    12.011   12.938898    0.864890   19.578413
  44 H     1.0000    0     1.008   12.312983    1.087216   17.633035
  45 C     6.0000    0    12.011   11.585835    2.017774   21.536547
  46 H     1.0000    0     1.008    9.916130    3.129160   21.089892
  47 C     6.0000    0    12.011   12.352025    1.744255   24.039149
  48 H     1.0000    0     1.008   11.269174    2.648810   25.533753
  49 C     6.0000    0    12.011   14.485091    0.314583   24.660378
  50 H     1.0000    0     1.008   15.068015    0.096886   26.613958
  51 H     1.0000    0     1.008   20.180102   -4.286220   20.013995
  52 H     1.0000    0     1.008   18.241073   -0.517105   10.442400
  53 H     1.0000    0     1.008   17.171129    1.772790   15.273995
  54 N     7.0000    0    14.007   22.044147    0.001077   16.483930
  55 C     6.0000    0    12.011   24.803147   -0.000019   16.406092
  56 C     6.0000    0    12.011   25.702902    0.001077   19.183801
  57 O     8.0000    0    15.999   24.224683    0.002551   20.980930
  58 C     6.0000    0    12.011   25.818742    2.260736   14.897902
  59 H     1.0000    0     1.008   24.335666    3.100776   13.715311
  60 H     1.0000    0     1.008   26.423493    3.776712   16.177133
  61 C     6.0000    0    12.011   27.990340    1.480676   13.160695
  62 H     1.0000    0     1.008   29.437114    0.390587   14.161267
  63 H     1.0000    0     1.008   27.283715    0.278432   11.629299
  64 C     6.0000    0    12.011   29.257742    3.774747   12.079772
  65 O     8.0000    0    15.999   30.345487    5.401026   13.300365
  66 O     8.0000    0    15.999   29.103483    3.908917    9.550770
  67 H     1.0000    0     1.008   21.224195    0.048736   18.222724
  68 H     1.0000    0     1.008   25.383765   -1.799794   15.556925
  69 N     7.0000    0    14.007   28.179313    0.000397   19.712527
  70 C     6.0000    0    12.011   29.030237    0.001833   22.339492
  71 C     6.0000    0    12.011   31.937978    0.000586   22.298069
  72 O     8.0000    0    15.999   33.180945   -0.001266   20.333170
  73 H     1.0000    0     1.008   28.410388    1.772714   23.222315
  74 C     6.0000    0    12.011   28.035996   -2.275967   23.833604
  75 H     1.0000    0     1.008   25.988534   -2.463220   23.620500
  76 H     1.0000    0     1.008   28.913925   -4.036890   23.184048
  77 O     8.0000    0    15.999   28.560187   -2.004848   26.475857
  78 H     1.0000    0     1.008   27.507515   -3.247079   27.339518
  79 H     1.0000    0     1.008   29.545415   -0.080654   18.362771
  80 N     7.0000    0    14.007   33.235180    0.001531   24.472804
  81 C     6.0000    0    12.011   35.996259   -0.000057   24.433479
  82 C     6.0000    0    12.011   36.892367    0.001568   27.199981
  83 O     8.0000    0    15.999   35.431723    0.003798   29.008959
  84 H     1.0000    0     1.008   36.632662   -1.771108   23.562863
  85 C     6.0000    0    12.011   37.091280    2.277460   23.011101
  86 H     1.0000    0     1.008   36.230888    2.464467   21.140990
  87 H     1.0000    0     1.008   36.758745    4.038572   24.051036
  88 O     8.0000    0    15.999   39.761690    2.006133   22.657552
  89 H     1.0000    0     1.008   40.240905    3.248137   21.382799
  90 H     1.0000    0     1.008   32.396614    0.082902   26.200467
  91 N     7.0000    0    14.007   39.368797    0.000567   27.728707
  92 C     6.0000    0    12.011   40.221989    0.002532   30.362721
  93 C     6.0000    0    12.011   43.131808    0.000680   30.255234
  94 O     8.0000    0    15.999   44.319577   -0.001928   28.253579
  95 C     6.0000    0    12.011   39.246721   -2.322908   31.770888
  96 H     1.0000    0     1.008   37.213375   -2.561902   31.447953
  97 H     1.0000    0     1.008   40.195325   -4.036512   31.092118
  98 C     6.0000    0    12.011   39.632527   -2.121482   34.591494
  99 O     8.0000    0    15.999   40.525838   -0.276769   35.672133
 100 N     7.0000    0    14.007   38.955684   -4.228262   35.911581
 101 H     1.0000    0     1.008   38.088186   -5.728365   35.106765
 102 H     1.0000    0     1.008   39.127857   -4.191280   37.816462
 103 H     1.0000    0     1.008   39.573454    1.764154   31.240083
 104 H     1.0000    0     1.008   40.689130   -0.385655   26.385396
 105 N     7.0000    0    14.007   44.478012    0.001890   32.399997
 106 C     6.0000    0    12.011   47.232609   -0.000283   32.298254
 107 C     6.0000    0    12.011   48.157856    0.001871   35.052020
 108 O     8.0000    0    15.999   46.721683    0.004838   36.877892
 109 C     6.0000    0    12.011   48.200111    2.318977   30.849930
 110 C     6.0000    0    12.011   50.975381    2.070592   30.096856
 111 S    16.0000    0    32.060   51.949970    4.817838   28.264898
 112 C     6.0000    0    12.011   55.134347    3.833347   27.509499
 113 H     1.0000    0     1.008   47.843179   -1.751096   31.373309
 114 H     1.0000    0     1.008   47.926384    4.022792   32.004194
 115 H     1.0000    0     1.008   47.055012    2.570462   29.137536
 116 H     1.0000    0     1.008   51.251357    0.369914   28.950963
 117 H     1.0000    0     1.008   52.187886    1.954487   31.764539
 118 H     1.0000    0     1.008   56.224833    3.533523   29.237956
 119 H     1.0000    0     1.008   56.057649    5.309129   26.397150
 120 H     1.0000    0     1.008   55.102959    2.094327   26.395166
 121 H     1.0000    0     1.008   43.647723    0.843045   33.913554
 122 O     8.0000    0    15.999   50.684968    0.000340   35.414828

--------------------------------
INTERNAL COORDINATES (ANGSTROEM)
--------------------------------
 N      0   0   0     0.000000000000     0.00000000     0.00000000
 C      1   0   0     1.465580000000     0.00000000     0.00000000
 C      2   1   0     1.540421113397   105.89139260     0.00000000
 O      3   2   1     1.230948181281   122.85678302     0.00000000
 H      2   1   3     1.097479254155   107.13752009   116.23228084
 C      2   1   3     1.534387287943   111.39188675   238.24155912
 H      6   2   1     1.094235377513   110.76696714   314.22562030
 S      6   2   1     1.827296926775   113.51437031   194.31990438
 H      6   2   1     1.096539068570   110.66737207    72.77144150
 H      8   6   2     1.342299727259    96.30377943   171.14722920
 H      1   2   3     1.017624185100   116.96640565     8.43483813
 H      1   2   3     1.020003566758   109.47114980   175.00029763
 H      1   2   3     1.020004070433   109.47113980    99.99986914
 N      3   2   1     1.339998258693   119.99960641   180.00000085
 C     14   3   2     1.455746541332   119.99981678   179.99000166
 C     15  14   3     1.537720940288   107.96931389   179.99984059
 O     16  15  14     1.229750723724   123.25821504     0.00000000
 H     14   3   2     1.016443604240   120.58762561   353.99955127
 H     15  14   3     1.096145644018   108.25097131   297.22988354
 C     15  14   3     1.524187117417   111.30479684    58.31039839
 H     20  15  14     1.094864934775   111.23516549   301.46387408
 H     20  15  14     1.095751408715   111.03413169    61.33495715
 H     20  15  14     1.095146558685   111.28602421   181.15353752
 N     16  15  14     1.339999900187   120.00016676   179.99965008
 C     24  16  15     1.446751452220   120.00048571   179.99023434
 C     25  24  16     1.525406856186   109.99129674   180.00037901
 O     26  25  24     1.228551074762   123.57070116     0.00000000
 H     25  24  16     1.095289760840   108.75254507   300.24315499
 H     25  24  16     1.093693225955   108.82836659    59.61705754
 H     24  16  15     1.016071480802   122.30472021     0.15866671
 N     26  25  24     1.340004202419   119.99972005   179.99983201
 C     31  26  25     1.463578686952   119.99959137   179.99001256
 C     32  31  26     1.538221572434   106.29747261   180.00037681
 O     33  32  31     1.231013544402   122.94971681     0.00000000
 C     32  31  26     1.536170206748   111.51281572    59.07171488
 H     35  32  31     1.098260271384   110.01898780    76.42832615
 H     35  32  31     1.097966914119   110.05939541   320.40495270
 C     35  32  31     1.500522578337   113.67209829   199.50388609
 C     38  35  32     1.381678988839   126.81369323   256.21285198
 N     39  38  35     1.369338711094   108.34228310   180.85660975
 H     40  39  38     1.010610099445   125.36243393   178.97403794
 C     40  39  38     1.374935472086   110.22974436     0.00000000
 C     42  40  39     1.394772881010   107.11971889     0.20849310
 C     43  42  40     1.409957590320   118.51518222   179.32312562
 H     44  43  42     1.087803067379   120.66917300   180.35682134
 C     44  43  42     1.399492181650   119.47707419   359.90860384
 H     46  44  43     1.087403848117   119.37688980   180.41875319
 C     46  44  43     1.392538269672   120.65492571     0.14234470
 H     48  46  44     1.087665167871   119.49878231   180.27396505
 C     48  46  44     1.398055650895   120.99381958   359.96569933
 H     50  48  46     1.084963845020   120.73438256   180.39312839
 H     39  38  35     1.082500468129   131.17184138     0.02596372
 H     31  26  25     1.016677784797   120.41938455   341.82428589
 H     32  31  26     1.096743236770   107.59092302   296.30259954
 N     33  32  31     1.339996624249   119.99992933   180.00034453
 C     55  33  32     1.460581032500   119.99956937   179.98964197
 C     56  55  33     1.545090975736   106.33214561   179.99936202
 O     57  56  55     1.231381754778   122.61300649     0.00000000
 C     56  55  33     1.535260241946   111.36263172    56.84124698
 H     59  56  55     1.097797475402   111.19984574   343.02131809
 H     59  56  55     1.097368439677   110.55228776    99.63434573
 C     59  56  55     1.528416956789   111.43282104   222.85239527
 H     62  59  56     1.095101982876   112.15377907   310.06196051
 H     62  59  56     1.096033680732   110.17972053    68.97693607
 C     62  59  56     1.500239588632   110.29779641   190.47759929
 O     65  62  59     1.220303957340   125.43079867    62.29687706
 O     65  62  59     1.342655793940   113.30609226   242.15975306
 H     55  33  32     1.017617057296   123.12643732   358.33640193
 H     56  55  33     1.096992585253   106.96989952   294.85345599
 N     57  56  55     1.339995516895   120.00015791   179.99981952
 C     70  57  56     1.461240253552   120.00011955   179.99042517
 C     71  70  57     1.538866266477   107.13196145   180.00007907
 O     72  71  70     1.230357050331   123.13303304     0.00000000
 H     71  70  57     1.097275499180   108.26196763   295.98738747
 C     71  70  57     1.534546489684   112.58776550    58.35097928
 H     75  71  70     1.093820434029   110.95600001   308.84001919
 H     75  71  70     1.096499281760   111.14606630    69.13775061
 O     75  71  70     1.432671637676   110.96522323   189.33745030
 H     78  75  71     0.975347780538   106.21485367   165.15591681
 H     70  57  56     1.017155724459   123.26017015   357.15334342
 N     72  71  70     1.340000195858   119.99937841   179.99988499
 C     81  72  71     1.461248429152   119.99954454   179.99034303
 C     82  81  72     1.538854944594   107.13183546   180.00004231
 O     83  82  81     1.230367217094   123.13329916     0.00000000
 H     82  81  72     1.097274613303   108.26148793   295.98739160
 C     82  81  72     1.534551162979   112.58814003    58.35061140
 H     86  82  81     1.093818502312   110.95571345   308.84059558
 H     86  82  81     1.096502941446   111.14592246    69.13760870
 O     86  82  81     1.432663958819   110.96518452   189.33727117
 H     89  86  82     0.975354802418   106.21460674   165.15563946
 H     81  72  71     1.017154365718   123.26098125   357.15277289
 N     83  82  81     1.340005352937   119.99973219   179.99968194
 C     92  83  82     1.465158694920   119.99970991   179.99001237
 C     93  92  83     1.540860516367   105.83227947   180.00023716
 O     94  93  92     1.231678784789   122.80015088     0.00000000
 C     93  92  83     1.528374869559   111.05141930    59.70505815
 H     96  93  92     1.096801738237   110.37378876   311.14762255
 H     96  93  92     1.096944673400   110.57367419    70.10625418
 C     96  93  92     1.510264047675   112.29543427   191.66940462
 O     99  96  93     1.226133766479   124.69703240     2.84529983
 N     99  96  93     1.363519212223   114.40056556   184.43374963
 H    101  99  96     1.011072978622   123.05259847   353.50376440
 H    101  99  96     1.012318298462   118.07961717   181.56721785
 H     93  92  83     1.096517568760   107.87651640   296.79011857
 H     92  83  82     1.017470698841   121.71952847   346.40547110
 N     94  93  92     1.340007416248   119.99969355   179.99997023
 C    106  94  93     1.458664422340   119.99991201   179.98991811
 C    107 106  94     1.537286023126   106.45668009   180.00003122
 O    108 107 106     1.229288017147   123.24054088     0.00000000
 C    107 106  94     1.534857787158   110.55715160    58.73956744
 C    110 107 106     1.527384046597   112.47030278   194.84518522
 S    111 110 107     1.821880414901   110.01984631   177.39336548
 C    112 111 110     1.808525315969    98.71423146   183.97772294
 H    107 106  94     1.096516494039   108.15578114   297.31577261
 H    110 107 106     1.098630512502   109.54981996    72.15245183
 H    110 107 106     1.098191127992   108.95764930   315.82493401
 H    111 110 107     1.094966843151   110.08783697    57.40908428
 H    111 110 107     1.092826692802   111.01909181   296.83814775
 H    113 112 111     1.093057251383   110.41143976   300.09164991
 H    113 112 111     1.093200973060   109.24831551   180.77196910
 H    113 112 111     1.093095813275   110.34010661    61.53843755
 H    106  94  93     1.016209965952   115.97091753   330.91504500
 O    108 107 106     1.351001613730   116.74190582   179.99977712

---------------------------
INTERNAL COORDINATES (A.U.)
---------------------------
 N      0   0   0     0.000000000000     0.00000000     0.00000000
 C      1   0   0     2.769544827352     0.00000000     0.00000000
 C      2   1   0     2.910974035231   105.89139260     0.00000000
 O      3   2   1     2.326154947670   122.85678302     0.00000000
 H      2   1   3     2.073935228013   107.13752009   116.23228084
 C      2   1   3     2.899571757582   111.39188675   238.24155912
 H      6   2   1     2.067805189547   110.76696714   314.22562030
 S      6   2   1     3.453090756960   113.51437031   194.31990438
 H      6   2   1     2.072158534742   110.66737207    72.77144150
 H      8   6   2     2.536578874157    96.30377943   171.14722920
 H      1   2   3     1.923031017093   116.96640565     8.43483813
 H      1   2   3     1.927527396796   109.47114980   175.00029763
 H      1   2   3     1.927528348603   109.47113980    99.99986914
 N      3   2   1     2.532229728861   119.99960641   180.00000085
 C     14   3   2     2.750962283521   119.99981678   179.99000166
 C     15  14   3     2.905871447540   107.96931389   179.99984059
 O     16  15  14     2.323892080830   123.25821504     0.00000000
 H     14   3   2     1.920800042589   120.58762561   353.99955127
 H     15  14   3     2.071415070085   108.25097131   297.22988354
 C     15  14   3     2.880296228769   111.30479684    58.31039839
 H     20  15  14     2.068994880358   111.23516549   301.46387408
 H     20  15  14     2.070670073329   111.03413169    61.33495715
 H     20  15  14     2.069527072421   111.28602421   181.15353752
 N     16  15  14     2.532232830834   120.00016676   179.99965008
 C     24  16  15     2.733964028548   120.00048571   179.99023434
 C     25  24  16     2.882601200998   109.99129674   180.00037901
 O     26  25  24     2.321625072836   123.57070116     0.00000000
 H     25  24  16     2.069797685275   108.75254507   300.24315499
 H     25  24  16     2.066780671580   108.82836659    59.61705754
 H     24  16  15     1.920096831204   122.30472021     0.15866671
 N     26  25  24     2.532240960875   119.99972005   179.99983201
 C     31  26  25     2.765762893783   119.99959137   179.99001256
 C     32  31  26     2.906817505189   106.29747261   180.00037681
 O     33  32  31     2.326278466067   122.94971681     0.00000000
 C     32  31  26     2.902940985843   111.51281572    59.07171488
 H     35  32  31     2.075411136681   110.01898780    76.42832615
 H     35  32  31     2.074856771792   110.05939541   320.40495270
 C     35  32  31     2.835576730823   113.67209829   199.50388609
 C     38  35  32     2.610994893900   126.81369323   256.21285198
 N     39  38  35     2.587675148544   108.34228310   180.85660975
 H     40  39  38     1.909776316126   125.36243393   178.97403794
 C     40  39  38     2.598251494056   110.22974436     0.00000000
 C     42  40  39     2.635738764129   107.11971889     0.20849310
 C     43  42  40     2.664433706148   118.51518222   179.32312562
 H     44  43  42     2.055649884987   120.66917300   180.35682134
 C     44  43  42     2.644656949883   119.47707419   359.90860384
 H     46  44  43     2.054895469914   119.37688980   180.41875319
 C     46  44  43     2.631515960684   120.65492571     0.14234470
 H     48  46  44     2.055389292682   119.49878231   180.27396505
 C     48  46  44     2.641942300173   120.99381958   359.96569933
 H     50  48  46     2.050284532293   120.73438256   180.39312839
 H     39  38  35     2.045629424606   131.17184138     0.02596372
 H     31  26  25     1.921242579708   120.41938455   341.82428589
 H     32  31  26     2.072544356725   107.59092302   296.30259954
 N     33  32  31     2.532226640210   119.99992933   180.00034453
 C     55  33  32     2.760098147826   119.99956937   179.98964197
 C     56  55  33     2.919798796134   106.33214561   179.99936202
 O     57  56  55     2.326974282838   122.61300649     0.00000000
 C     56  55  33     2.901221401576   111.36263172    56.84124698
 H     59  56  55     2.074536579021   111.19984574   343.02131809
 H     59  56  55     2.073725818999   110.55228776    99.63434573
 C     59  56  55     2.888289466772   111.43282104   222.85239527
 H     62  59  56     2.069442836351   112.15377907   310.06196051
 H     62  59  56     2.071203490138   110.17972053    68.97693607
 C     62  59  56     2.835041957782   110.29779641   190.47759929
 O     65  62  59     2.306040279513   125.43079867    62.29687706
 O     65  62  59     2.537251742669   113.30609226   242.15975306
 H     55  33  32     1.923017547497   123.12643732   358.33640193
 H     56  55  33     2.073015557070   106.96989952   294.85345599
 N     57  56  55     2.532224547615   120.00015791   179.99981952
 C     70  57  56     2.761343895074   120.00011955   179.99042517
 C     71  70  57     2.908035800371   107.13196145   180.00007907
 O     72  71  70     2.325037872065   123.13303304     0.00000000
 H     71  70  57     2.073550186911   108.26196763   295.98738747
 C     71  70  57     2.899872605272   112.58776550    58.35097928
 H     75  71  70     2.067021060002   110.95600001   308.84001919
 H     75  71  70     2.072083348568   111.14606630    69.13775061
 O     75  71  70     2.707357035043   110.96522323   189.33745030
 H     78  75  71     1.843140190544   106.21485367   165.15591681
 H     70  57  56     1.922145754778   123.26017015   357.15334342
 N     72  71  70     2.532233389573   119.99937841   179.99988499
 C     81  72  71     2.761359344720   119.99954454   179.99034303
 C     82  81  72     2.908014405112   107.13183546   180.00004231
 O     83  82  81     2.325057084463   123.13329916     0.00000000
 H     82  81  72     2.073548512848   108.26148793   295.98739160
 C     82  81  72     2.899881436521   112.58814003    58.35061140
 H     86  82  81     2.067017409586   110.95571345   308.84059558
 H     86  82  81     2.072090264372   111.14592246    69.13760870
 O     86  82  81     2.707342524108   110.96518452   189.33727117
 H     89  86  82     1.843153459975   106.21460674   165.15563946
 H     81  72  71     1.922143187130   123.26098125   357.15277289
 N     83  82  81     2.532243135040   119.99973219   179.99968194
 C     92  83  82     2.768748676132   119.99970991   179.99001237
 C     93  92  83     2.911804386507   105.83227947   180.00023716
 O     94  93  92     2.327535588213   122.80015088     0.00000000
 C     93  92  83     2.888209933434   111.05141930    59.70505815
 H     96  93  92     2.072654908477   110.37378876   311.14762255
 H     96  93  92     2.072925016789   110.57367419    70.10625418
 C     96  93  92     2.853985440013   112.29543427   191.66940462
 O     99  96  93     2.317057022199   124.69703240     2.84529983
 N     99  96  93     2.576677889441   114.40056556   184.43374963
 H    101  99  96     1.910651031004   123.05259847   353.50376440
 H    101  99  96     1.913004344449   118.07961717   181.56721785
 H     93  92  83     2.072117905990   107.87651640   296.79011857
 H     92  83  82     1.922740970099   121.71952847   346.40547110
 N     94  93  92     2.532247034132   119.99969355   179.99997023
 C    106  94  93     2.756476279517   119.99991201   179.98991811
 C    107 106  94     2.905049573214   106.45668009   180.00003122
 O    108 107 106     2.323017692118   123.24054088     0.00000000
 C    107 106  94     2.900460872245   110.55715160    58.73956744
 C    110 107 106     2.886337549389   112.47030278   194.84518522
 S    111 110 107     3.442855032918   110.01984631   177.39336548
 C    112 111 110     3.417617553444    98.71423146   183.97772294
 H    107 106  94     2.072115875062   108.15578114   297.31577261
 H    110 107 106     2.076110790998   109.54981996    72.15245183
 H    110 107 106     2.075280474607   108.95764930   315.82493401
 H    111 110 107     2.069187459280   110.08783697    57.40908428
 H    111 110 107     2.065143161234   111.01909181   296.83814775
 H    113 112 111     2.065578853810   110.41143976   300.09164991
 H    113 112 111     2.065850448420   109.24831551   180.77196910
 H    113 112 111     2.065651725226   110.34010661    61.53843755
 H    106  94  93     1.920358530211   115.97091753   330.91504500
 O    108 107 106     2.553023056435   116.74190582   179.99977712

---------------------
BASIS SET INFORMATION
---------------------
There are 5 groups of distinct atoms

 Group   1 Type N   : 6s3p contracted to 2s1p pattern {33/3}
 Group   2 Type C   : 6s3p contracted to 2s1p pattern {33/3}
 Group   3 Type O   : 6s3p contracted to 2s1p pattern {33/3}
 Group   4 Type H   : 3s contracted to 1s pattern {3}
 Group   5 Type S   : 9s6p1d contracted to 3s2p1d pattern {333/33/1}

Atom   0N    basis set group =>   1
Atom   1C    basis set group =>   2
Atom   2C    basis set group =>   2
Atom   3O    basis set group =>   3
Atom   4H    basis set group =>   4
Atom   5C    basis set group =>   2
Atom   6H    basis set group =>   4
Atom   7S    basis set group =>   5
Atom   8H    basis set group =>   4
Atom   9H    basis set group =>   4
Atom  10H    basis set group =>   4
Atom  11H    basis set group =>   4
Atom  12H    basis set group =>   4
Atom  13N    basis set group =>   1
Atom  14C    basis set group =>   2
Atom  15C    basis set group =>   2
Atom  16O    basis set group =>   3
Atom  17H    basis set group =>   4
Atom  18H    basis set group =>   4
Atom  19C    basis set group =>   2
Atom  20H    basis set group =>   4
Atom  21H    basis set group =>   4
Atom  22H    basis set group =>   4
Atom  23N    basis set group =>   1
Atom  24C    basis set group =>   2
Atom  25C    basis set group =>   2
Atom  26O    basis set group =>   3
Atom  27H    basis set group =>   4
Atom  28H    basis set group =>   4
Atom  29H    basis set group =>   4
Atom  30N    basis set group =>   1
Atom  31C    basis set group =>   2
Atom  32C    basis set group =>   2
Atom  33O    basis set group =>   3
Atom  34C    basis set group =>   2
Atom  35H    basis set group =>   4
Atom  36H    basis set group =>   4
Atom  37C    basis set group =>   2
Atom  38C    basis set group =>   2
Atom  39N    basis set group =>   1
Atom  40H    basis set group =>   4
Atom  41C    basis set group =>   2
Atom  42C    basis set group =>   2
Atom  43C    basis set group =>   2
Atom  44H    basis set group =>   4
Atom  45C    basis set group =>   2
Atom  46H    basis set group =>   4
Atom  47C    basis set group =>   2
Atom  48H    basis set group =>   4
Atom  49C    basis set group =>   2
Atom  50H    basis set group =>   4
Atom  51H    basis set group =>   4
Atom  52H    basis set group =>   4
Atom  53H    basis set group =>   4
Atom  54N    basis set group =>   1
Atom  55C    basis set group =>   2
Atom  56C    basis set group =>   2
Atom  57O    basis set group =>   3
Atom  58C    basis set group =>   2
Atom  59H    basis set group =>   4
Atom  60H    basis set group =>   4
Atom  61C    basis set group =>   2
Atom  62H    basis set group =>   4
Atom  63H    basis set group =>   4
Atom  64C    basis set group =>   2
Atom  65O    basis set group =>   3
Atom  66O    basis set group =>   3
Atom  67H    basis set group =>   4
Atom  68H    basis set group =>   4
Atom  69N    basis set group =>   1
Atom  70C    basis set group =>   2
Atom  71C    basis set group =>   2
Atom  72O    basis set group =>   3
Atom  73H    basis set group =>   4
Atom  74C    basis set group =>   2
Atom  75H    basis set group =>   4
Atom  76H    basis set group =>   4
Atom  77O    basis set group =>   3
Atom  78H    basis set group =>   4
Atom  79H    basis set group =>   4
Atom  80N    basis set group =>   1
Atom  81C    basis set group =>   2
Atom  82C    basis set group =>   2
Atom  83O    basis set group =>   3
Atom  84H    basis set group =>   4
Atom  85C    basis set group =>   2
Atom  86H    basis set group =>   4
Atom  87H    basis set group =>   4
Atom  88O    basis set group =>   3
Atom  89H    basis set group =>   4
Atom  90H    basis set group =>   4
Atom  91N    basis set group =>   1
Atom  92C    basis set group =>   2
Atom  93C    basis set group =>   2
Atom  94O    basis set group =>   3
Atom  95C    basis set group =>   2
Atom  96H    basis set group =>   4
Atom  97H    basis set group =>   4
Atom  98C    basis set group =>   2
Atom  99O    basis set group =>   3
Atom 100N    basis set group =>   1
Atom 101H    basis set group =>   4
Atom 102H    basis set group =>   4
Atom 103H    basis set group =>   4
Atom 104H    basis set group =>   4
Atom 105N    basis set group =>   1
Atom 106C    basis set group =>   2
Atom 107C    basis set group =>   2
Atom 108O    basis set group =>   3
Atom 109C    basis set group =>   2
Atom 110C    basis set group =>   2
Atom 111S    basis set group =>   5
Atom 112C    basis set group =>   2
Atom 113H    basis set group =>   4
Atom 114H    basis set group =>   4
Atom 115H    basis set group =>   4
Atom 116H    basis set group =>   4
Atom 117H    basis set group =>   4
Atom 118H    basis set group =>   4
Atom 119H    basis set group =>   4
Atom 120H    basis set group =>   4
Atom 121H    basis set group =>   4
Atom 122O    basis set group =>   3
--------------------------------------------------------------------------
WARNING: No preset parameters were found for the device that Open MPI
detected:

  Local host:            c0711a-s29
  Device name:           mlx5_0
  Device vendor ID:      0x02c9
  Device vendor part ID: 4123

Default device parameters will be used, which may result in lower
performance.  You can edit any of the files specified by the
btl_openib_device_param_files MCA parameter to set values for your
device.

NOTE: You can turn off this warning by setting the MCA parameter
      btl_openib_warn_no_device_params_found to 0.
--------------------------------------------------------------------------
--------------------------------------------------------------------------
WARNING: There was an error initializing an OpenFabrics device.

  Local host:   c0711a-s29
  Local device: mlx5_0
--------------------------------------------------------------------------


           ************************************************************
           *        Program running with 15 parallel MPI-processes    *
           *              working on a common directory               *
           ************************************************************
------------------------------------------------------------------------------
                           ORCA GTO INTEGRAL CALCULATION
------------------------------------------------------------------------------

                         BASIS SET STATISTICS AND STARTUP INFO

 # of primitive gaussian shells          ...  785
 # of primitive gaussian functions       ... 1207
 # of contracted shells                  ...  263
 # of contracted basis functions         ...  409
 Highest angular momentum                ...    2
 Maximum contraction depth               ...    3
 Integral package used                   ... LIBINT
 Integral threshhold            Thresh   ...  1.000e-10
 Primitive cut-off              TCut     ...  1.000e-11


------------------------------ INTEGRAL EVALUATION ----------------------------


 * One electron integrals 
 Pre-screening matrix                    ... done
 Shell pair data                         ... done (   0.005 sec)

[c0711a-s29.ufhpc:26544] 14 more processes have sent help message help-mpi-btl-openib.txt / no device params found
[c0711a-s29.ufhpc:26544] Set MCA parameter "orte_base_help_aggregate" to 0 to see all help / error messages
[c0711a-s29.ufhpc:26544] 14 more processes have sent help message help-mpi-btl-openib.txt / error in device init
--------------------------------------------------------------------------
WARNING: No preset parameters were found for the device that Open MPI
detected:

  Local host:            c0711a-s29
  Device name:           mlx5_0
  Device vendor ID:      0x02c9
  Device vendor part ID: 4123

Default device parameters will be used, which may result in lower
performance.  You can edit any of the files specified by the
btl_openib_device_param_files MCA parameter to set values for your
device.

NOTE: You can turn off this warning by setting the MCA parameter
      btl_openib_warn_no_device_params_found to 0.
--------------------------------------------------------------------------
--------------------------------------------------------------------------
WARNING: There was an error initializing an OpenFabrics device.

  Local host:   c0711a-s29
  Local device: mlx5_0
--------------------------------------------------------------------------


           ************************************************************
           *        Program running with 15 parallel MPI-processes    *
           *              working on a common directory               *
           ************************************************************
-------------------------------------------------------------------------------
                                 ORCA SCF
-------------------------------------------------------------------------------

------------
SCF SETTINGS
------------
Hamiltonian:
 Ab initio Hamiltonian  Method          .... Hartree-Fock(GTOs)


General Settings:
 Integral files         IntName         .... CAGWESSNM
 Hartree-Fock type      HFTyp           .... UHF
 Total Charge           Charge          ....    0
 Multiplicity           Mult            ....    2
 Number of Electrons    NEL             ....  519
 Basis Dimension        Dim             ....  409
 Nuclear Repulsion      ENuc            ....   9771.3659796417 Eh

Convergence Acceleration:
 DIIS                   CNVDIIS         .... off
 Newton-Raphson         CNVNR           .... off
 SOSCF                  CNVSOSCF        .... off
 Level Shifting         CNVShift        .... off
 Zerner damping         CNVZerner       .... off
 Static damping         CNVDamp         .... off
 Fernandez-Rico         CNVRico         .... off

SCF Procedure:
 Maximum # iterations   MaxIter         .... 10000
 SCF integral mode      SCFMode         .... Direct
   Integral package                     .... LIBINT
 Reset frequency        DirectResetFreq ....    20
 Integral Threshold     Thresh          ....  1.000e-10 Eh
 Primitive CutOff       TCut            ....  1.000e-11 Eh

Convergence Tolerance:
 Convergence Check Mode ConvCheckMode   .... All-Criteria
 Convergence forced     ConvForced      .... 0
 Energy Change          TolE            ....  1.000e-06 Eh
 Max Density Change     TolMaxP         ....  1.000e-05
 RMS Density Change     TolRMSP         ....  1.000e-06


Diagonalization of the overlap matrix:
Smallest eigenvalue                        ... 1.723e-01
Time for diagonalization                   ...    0.035 sec
Threshold for overlap eigenvalues          ... 1.000e-08
Number of eigenvalues below threshold      ... 0
Time for construction of square roots      ...    0.069 sec
Total time needed                          ...    0.105 sec

--------------------------------
INITIAL GUESS: MINIMAL BASIS EHT
--------------------------------
The minimal basis has 399 functions
EHT matrix was diagonalized
Basis set overlap was calculated now projecting the orbitals
Using GuessMode=FMatrix for the initial guess
C*T matrix was formed
Effective Fockian was calculated
Effective Fockian was diagonalized
Initial density was built
                      ------------------
                      INITIAL GUESS DONE
                      ------------------

--------------------
CPCM SOLVATION MODEL
--------------------
CPCM parameters:
  Epsilon                                         ...      78.3550
  Refrac                                          ...       1.3300
  Rsolv                                           ...       1.3000
  Surface type                                    ...    GEPOL SES
  Epsilon function type                           ...         CPCM
Solvent:                                     ... WATER
SMD-CDS solvent descriptors:
  Soln                                       ...    1.3328
  Soln25                                     ...    1.3323
  Sola                                       ...    0.0000
  Solb                                       ...    0.0000
  Solg                                       ...    0.0000
  Solc                                       ...    0.0000
  Solh                                       ...    0.0000
Radii:
 Radius for N  used is    3.5716 Bohr (=   1.8900 Ang.)
 Radius for C  used is    3.4960 Bohr (=   1.8500 Ang.)
 Radius for O  used is    2.8724 Bohr (=   1.5200 Ang.)
 Radius for H  used is    2.2677 Bohr (=   1.2000 Ang.)
 Radius for S  used is    4.7054 Bohr (=   2.4900 Ang.)
Calculating surface                               ...        done! (  0.3s)
GEPOL surface points                              ...         5302
GEPOL Volume                                      ...    6689.3615
GEPOL Surface-area                                ...    3354.3301
Calculating surface distance matrix               ...        done! (  0.2s)
Performing Cholesky decomposition & store         ...        done! (  1.4s)
Overall time for CPCM initialization              ...                 1.9s
--------------
SCF ITERATIONS
--------------
ITER       Energy         Delta-E        Max-DP      RMS-DP      [F,P]   Gradient Norm
               ***  Starting incremental Fock matrix formation  ***
[c0711a-s29.ufhpc:26613] 14 more processes have sent help message help-mpi-btl-openib.txt / no device params found
[c0711a-s29.ufhpc:26613] Set MCA parameter "orte_base_help_aggregate" to 0 to see all help / error messages
[c0711a-s29.ufhpc:26613] 14 more processes have sent help message help-mpi-btl-openib.txt / error in device init
                             ****Resetting KDIIS****
                             ****Turning on KDIIS(Cayley)****
  0  -3994.8058795289   0.000000000000 0.03056249  0.00066710  0.7865607   0.198306079
  1  -3995.9241374066  -1.118257877727 0.04600158  0.00091563  0.7116033   0.178190673
  2  -3997.2910444949  -1.366907088355 0.08625837  0.00166398  0.5732755   0.144309788
  3  -3999.0213829341  -1.730338439169 0.13195517  0.00258787  0.3461748   0.087342502
  4  -4000.0229631303  -1.001580196155 0.01573938  0.00016540  0.0099574   0.003703721
  5  -4000.0287748284  -0.005811698129 0.03315529  0.00022390  0.0085542   0.002069776
  6  -4000.0321898403  -0.003415011958 0.01455565  0.00007582  0.0033255   0.000820296
  7  -4000.0325254112  -0.000335570863 0.00213649  0.00004134  0.0014137   0.000586212
  8  -4000.0327045453  -0.000179134131 0.00304182  0.00001400  0.0004244   0.000104018
  9  -4000.0327164812  -0.000011935840 0.00065066  0.00000420  0.0001969   0.000045439
 10  -4000.0327184114  -0.000001930236 0.00056579  0.00000304  0.0001137   0.000025173
                          ***Energy convergence achieved***
 11  -4000.0327191169  -0.000000705446 0.00022259  0.00000130  0.0000652   0.000011059
                           ***RMSP convergence achieved***
 12  -4000.0327192624  -0.000000145501 0.00019934  0.00000094  0.0000484   0.000006658
 13  -4000.0327193122  -0.000000049880 0.00014001  0.00000060  0.0000327   0.000003972

            ***Energy convergence in two consecutive cycles with***
                    ***'reasonable' density convergence***
                       *** signaling convergence ***

                    *** KDIIS BlockDiag (39.252 sec) ***

               *****************************************************
               *                     SUCCESS                       *
               *           SCF CONVERGED AFTER  14 CYCLES          *
               *****************************************************


SMD CDS free energy correction energy :                19.88866     Kcal/mol
Total Energy after SMD CDS correction =             -4000.001024745 Eh

----------------
TOTAL SCF ENERGY
----------------

Total Energy       :        -4000.00102474 Eh         -108845.56148 eV

Components:
Nuclear Repulsion  :         9771.36597964 Eh          265892.38601 eV
Electronic Energy  :       -13771.36700439 Eh         -374737.94750 eV
One Electron Energy:       -24980.74512362 Eh         -679760.63318 eV
Two Electron Energy:        11209.37811924 Eh          305022.68568 eV
CPCM Dielectric    :           -0.42743876 Eh             -11.63120 eV
SMD CDS (Gcds)     :            0.03169460 Eh               0.86245 eV

Virial components:
Potential Energy   :        -8001.26573640 Eh         -217725.50964 eV
Kinetic Energy     :         4001.26471166 Eh          108879.94815 eV
Virial Ratio       :            1.99968418

CPCM Solvation Model Properties:
Surface-charge          :           -0.03961368
Charge-correction       :           -0.00104476 Eh              -0.02843 eV
Free-energy (cav+disp)  :            0.01222994 Eh               0.33279 eV
Corrected G(solv)       :        -3999.98983957 Eh         -108845.25712 eV

---------------
SCF CONVERGENCE
---------------

  Last Energy change         ...   -3.2332e-08  Tolerance :   1.0000e-06
  Last MAX-Density change    ...    9.0910e-05  Tolerance :   1.0000e-05
  Last RMS-Density change    ...    4.3109e-07  Tolerance :   1.0000e-06

             **** THE GBW FILE WAS UPDATED (CAGWESSNM.gbw) ****
             **** DENSITY FILE WAS UPDATED (CAGWESSNM.scfp) ****
             **** ENERGY FILE WAS UPDATED (CAGWESSNM.en.tmp) ****
----------------------
UHF SPIN CONTAMINATION
----------------------

Expectation value of <S**2>     :     0.760887
Ideal value S*(S+1) for S=0.5   :     0.750000
Deviation                       :     0.010887

             **** THE GBW FILE WAS UPDATED (CAGWESSNM.gbw) ****
             **** DENSITY FILE WAS UPDATED (CAGWESSNM.scfp) ****
----------------
ORBITAL ENERGIES
----------------
                 SPIN UP ORBITALS
  NO   OCC          E(Eh)            E(eV) 
   0   1.0000     -91.542014     -2490.9848 
   1   1.0000     -91.299853     -2484.3953 
   2   1.0000     -20.296758      -552.3029 
   3   1.0000     -20.296536      -552.2968 
   4   1.0000     -20.295135      -552.2587 
   5   1.0000     -20.270389      -551.5853 
   6   1.0000     -20.270218      -551.5807 
   7   1.0000     -20.269803      -551.5694 
   8   1.0000     -20.269648      -551.5652 
   9   1.0000     -20.268935      -551.5458 
  10   1.0000     -20.268866      -551.5439 
  11   1.0000     -20.265067      -551.4405 
  12   1.0000     -20.259880      -551.2994 
  13   1.0000     -20.155959      -548.4715 
  14   1.0000     -20.134213      -547.8798 
  15   1.0000     -20.050604      -545.6047 
  16   1.0000     -20.029824      -545.0392 
  17   1.0000     -15.613850      -424.8745 
  18   1.0000     -15.474930      -421.0942 
  19   1.0000     -15.453972      -420.5240 
  20   1.0000     -15.441062      -420.1727 
  21   1.0000     -15.440949      -420.1696 
  22   1.0000     -15.438917      -420.1143 
  23   1.0000     -15.434016      -419.9809 
  24   1.0000     -15.431896      -419.9232 
  25   1.0000     -15.426549      -419.7777 
  26   1.0000     -15.415084      -419.4658 
  27   1.0000     -15.414188      -419.4414 
  28   1.0000     -11.361466      -309.1612 
  29   1.0000     -11.336815      -308.4904 
  30   1.0000     -11.336602      -308.4846 
  31   1.0000     -11.335197      -308.4464 
  32   1.0000     -11.333981      -308.4133 
  33   1.0000     -11.333471      -308.3994 
  34   1.0000     -11.332456      -308.3718 
  35   1.0000     -11.326465      -308.2088 
  36   1.0000     -11.323103      -308.1173 
  37   1.0000     -11.305287      -307.6325 
  38   1.0000     -11.250388      -306.1386 
  39   1.0000     -11.249965      -306.1271 
  40   1.0000     -11.248677      -306.0921 
  41   1.0000     -11.247645      -306.0640 
  42   1.0000     -11.247053      -306.0479 
  43   1.0000     -11.244426      -305.9764 
  44   1.0000     -11.243689      -305.9563 
  45   1.0000     -11.237929      -305.7996 
  46   1.0000     -11.235275      -305.7274 
  47   1.0000     -11.233637      -305.6828 
  48   1.0000     -11.229872      -305.5804 
  49   1.0000     -11.229566      -305.5720 
  50   1.0000     -11.225558      -305.4630 
  51   1.0000     -11.224417      -305.4319 
  52   1.0000     -11.217306      -305.2384 
  53   1.0000     -11.207385      -304.9684 
  54   1.0000     -11.205497      -304.9171 
  55   1.0000     -11.183941      -304.3305 
  56   1.0000     -11.181910      -304.2752 
  57   1.0000     -11.169839      -303.9468 
  58   1.0000     -11.169301      -303.9321 
  59   1.0000     -11.168158      -303.9010 
  60   1.0000     -11.167373      -303.8797 
  61   1.0000     -11.166605      -303.8588 
  62   1.0000     -11.159064      -303.6536 
  63   1.0000     -11.158920      -303.6496 
  64   1.0000     -11.154333      -303.5248 
  65   1.0000     -11.151416      -303.4455 
  66   1.0000     -11.134570      -302.9871 
  67   1.0000      -9.136322      -248.6120 
  68   1.0000      -8.918814      -242.6933 
  69   1.0000      -6.799097      -185.0128 
  70   1.0000      -6.782948      -184.5734 
  71   1.0000      -6.780503      -184.5069 
  72   1.0000      -6.568222      -178.7304 
  73   1.0000      -6.566721      -178.6896 
  74   1.0000      -6.563725      -178.6080 
  75   1.0000      -1.424050       -38.7504 
  76   1.0000      -1.404001       -38.2048 
  77   1.0000      -1.400468       -38.1087 
  78   1.0000      -1.398226       -38.0477 
  79   1.0000      -1.394011       -37.9330 
  80   1.0000      -1.391615       -37.8678 
  81   1.0000      -1.388510       -37.7833 
  82   1.0000      -1.384248       -37.6673 
  83   1.0000      -1.383336       -37.6425 
  84   1.0000      -1.371438       -37.3187 
  85   1.0000      -1.336429       -36.3661 
  86   1.0000      -1.334725       -36.3197 
  87   1.0000      -1.319937       -35.9173 
  88   1.0000      -1.310555       -35.6620 
  89   1.0000      -1.303712       -35.4758 
  90   1.0000      -1.241297       -33.7774 
  91   1.0000      -1.226486       -33.3744 
  92   1.0000      -1.224213       -33.3125 
  93   1.0000      -1.224012       -33.3071 
  94   1.0000      -1.221716       -33.2446 
  95   1.0000      -1.221064       -33.2268 
  96   1.0000      -1.217948       -33.1421 
  97   1.0000      -1.213921       -33.0325 
  98   1.0000      -1.198600       -32.6156 
  99   1.0000      -1.182575       -32.1795 
 100   1.0000      -1.153359       -31.3845 
 101   1.0000      -1.145503       -31.1707 
 102   1.0000      -1.140703       -31.0401 
 103   1.0000      -1.119397       -30.4603 
 104   1.0000      -1.095328       -29.8054 
 105   1.0000      -1.083929       -29.4952 
 106   1.0000      -1.073698       -29.2168 
 107   1.0000      -1.065316       -28.9887 
 108   1.0000      -1.059136       -28.8206 
 109   1.0000      -1.044625       -28.4257 
 110   1.0000      -1.033242       -28.1159 
 111   1.0000      -1.009272       -27.4637 
 112   1.0000      -1.005430       -27.3591 
 113   1.0000      -1.001751       -27.2590 
 114   1.0000      -0.990312       -26.9478 
 115   1.0000      -0.984029       -26.7768 
 116   1.0000      -0.973957       -26.5027 
 117   1.0000      -0.954583       -25.9755 
 118   1.0000      -0.935728       -25.4625 
 119   1.0000      -0.909710       -24.7545 
 120   1.0000      -0.905009       -24.6265 
 121   1.0000      -0.896063       -24.3831 
 122   1.0000      -0.889588       -24.2069 
 123   1.0000      -0.884006       -24.0550 
 124   1.0000      -0.871827       -23.7236 
 125   1.0000      -0.850843       -23.1526 
 126   1.0000      -0.847400       -23.0589 
 127   1.0000      -0.845384       -23.0041 
 128   1.0000      -0.840801       -22.8793 
 129   1.0000      -0.807247       -21.9663 
 130   1.0000      -0.801194       -21.8016 
 131   1.0000      -0.798599       -21.7310 
 132   1.0000      -0.789352       -21.4794 
 133   1.0000      -0.782549       -21.2942 
 134   1.0000      -0.780275       -21.2324 
 135   1.0000      -0.777759       -21.1639 
 136   1.0000      -0.773648       -21.0520 
 137   1.0000      -0.771867       -21.0036 
 138   1.0000      -0.766775       -20.8650 
 139   1.0000      -0.762887       -20.7592 
 140   1.0000      -0.760067       -20.6825 
 141   1.0000      -0.756849       -20.5949 
 142   1.0000      -0.744769       -20.2662 
 143   1.0000      -0.725294       -19.7363 
 144   1.0000      -0.718917       -19.5627 
 145   1.0000      -0.717591       -19.5266 
 146   1.0000      -0.710310       -19.3285 
 147   1.0000      -0.703427       -19.1412 
 148   1.0000      -0.697701       -18.9854 
 149   1.0000      -0.690404       -18.7868 
 150   1.0000      -0.685587       -18.6558 
 151   1.0000      -0.681858       -18.5543 
 152   1.0000      -0.680604       -18.5202 
 153   1.0000      -0.676479       -18.4079 
 154   1.0000      -0.671856       -18.2821 
 155   1.0000      -0.666144       -18.1267 
 156   1.0000      -0.665358       -18.1053 
 157   1.0000      -0.662060       -18.0156 
 158   1.0000      -0.661146       -17.9907 
 159   1.0000      -0.656429       -17.8623 
 160   1.0000      -0.655344       -17.8328 
 161   1.0000      -0.652158       -17.7461 
 162   1.0000      -0.651229       -17.7209 
 163   1.0000      -0.648341       -17.6423 
 164   1.0000      -0.645401       -17.5623 
 165   1.0000      -0.643406       -17.5080 
 166   1.0000      -0.639918       -17.4130 
 167   1.0000      -0.636594       -17.3226 
 168   1.0000      -0.631595       -17.1866 
 169   1.0000      -0.624339       -16.9891 
 170   1.0000      -0.624010       -16.9802 
 171   1.0000      -0.622819       -16.9478 
 172   1.0000      -0.621810       -16.9203 
 173   1.0000      -0.616753       -16.7827 
 174   1.0000      -0.615044       -16.7362 
 175   1.0000      -0.610393       -16.6096 
 176   1.0000      -0.608738       -16.5646 
 177   1.0000      -0.604601       -16.4520 
 178   1.0000      -0.603623       -16.4254 
 179   1.0000      -0.602848       -16.4043 
 180   1.0000      -0.601816       -16.3763 
 181   1.0000      -0.600309       -16.3352 
 182   1.0000      -0.595895       -16.2151 
 183   1.0000      -0.592266       -16.1164 
 184   1.0000      -0.590909       -16.0794 
 185   1.0000      -0.586375       -15.9561 
 186   1.0000      -0.582379       -15.8473 
 187   1.0000      -0.580218       -15.7885 
 188   1.0000      -0.574950       -15.6452 
 189   1.0000      -0.573570       -15.6076 
 190   1.0000      -0.568995       -15.4831 
 191   1.0000      -0.565266       -15.3817 
 192   1.0000      -0.562377       -15.3031 
 193   1.0000      -0.561625       -15.2826 
 194   1.0000      -0.557701       -15.1758 
 195   1.0000      -0.554989       -15.1020 
 196   1.0000      -0.550479       -14.9793 
 197   1.0000      -0.548839       -14.9347 
 198   1.0000      -0.548400       -14.9227 
 199   1.0000      -0.544315       -14.8116 
 200   1.0000      -0.544086       -14.8053 
 201   1.0000      -0.540134       -14.6978 
 202   1.0000      -0.540032       -14.6950 
 203   1.0000      -0.535411       -14.5693 
 204   1.0000      -0.532362       -14.4863 
 205   1.0000      -0.529481       -14.4079 
 206   1.0000      -0.526759       -14.3338 
 207   1.0000      -0.526234       -14.3196 
 208   1.0000      -0.524535       -14.2733 
 209   1.0000      -0.520230       -14.1562 
 210   1.0000      -0.518669       -14.1137 
 211   1.0000      -0.513735       -13.9794 
 212   1.0000      -0.511417       -13.9164 
 213   1.0000      -0.509160       -13.8549 
 214   1.0000      -0.506921       -13.7940 
 215   1.0000      -0.503064       -13.6891 
 216   1.0000      -0.501306       -13.6412 
 217   1.0000      -0.498499       -13.5649 
 218   1.0000      -0.491369       -13.3708 
 219   1.0000      -0.490274       -13.3410 
 220   1.0000      -0.485406       -13.2086 
 221   1.0000      -0.482998       -13.1430 
 222   1.0000      -0.479431       -13.0460 
 223   1.0000      -0.478550       -13.0220 
 224   1.0000      -0.474645       -12.9157 
 225   1.0000      -0.470322       -12.7981 
 226   1.0000      -0.469445       -12.7742 
 227   1.0000      -0.468402       -12.7459 
 228   1.0000      -0.456509       -12.4222 
 229   1.0000      -0.447994       -12.1905 
 230   1.0000      -0.436190       -11.8693 
 231   1.0000      -0.430048       -11.7022 
 232   1.0000      -0.428353       -11.6561 
 233   1.0000      -0.411701       -11.2030 
 234   1.0000      -0.411047       -11.1852 
 235   1.0000      -0.402852       -10.9622 
 236   1.0000      -0.401758       -10.9324 
 237   1.0000      -0.400202       -10.8901 
 238   1.0000      -0.399120       -10.8606 
 239   1.0000      -0.397979       -10.8296 
 240   1.0000      -0.394500       -10.7349 
 241   1.0000      -0.392243       -10.6735 
 242   1.0000      -0.388155       -10.5622 
 243   1.0000      -0.384354       -10.4588 
 244   1.0000      -0.377025       -10.2594 
 245   1.0000      -0.375233       -10.2106 
 246   1.0000      -0.373517       -10.1639 
 247   1.0000      -0.370017       -10.0687 
 248   1.0000      -0.369012       -10.0413 
 249   1.0000      -0.367193        -9.9918 
 250   1.0000      -0.363886        -9.9018 
 251   1.0000      -0.362689        -9.8693 
 252   1.0000      -0.320957        -8.7337 
 253   1.0000      -0.318522        -8.6674 
 254   1.0000      -0.303274        -8.2525 
 255   1.0000      -0.299476        -8.1491 
 256   1.0000      -0.287549        -7.8246 
 257   1.0000      -0.283052        -7.7022 
 258   1.0000      -0.273623        -7.4457 
 259   1.0000      -0.263005        -7.1567 
 260   0.0000       0.155798         4.2395 
 261   0.0000       0.176577         4.8049 
 262   0.0000       0.205859         5.6017 
 263   0.0000       0.214865         5.8468 
 264   0.0000       0.221183         6.0187 
 265   0.0000       0.224009         6.0956 
 266   0.0000       0.227207         6.1826 
 267   0.0000       0.229823         6.2538 
 268   0.0000       0.232651         6.3307 
 269   0.0000       0.233745         6.3605 
 270   0.0000       0.235301         6.4029 
 271   0.0000       0.241394         6.5687 
 272   0.0000       0.242884         6.6092 
 273   0.0000       0.262561         7.1447 
 274   0.0000       0.288864         7.8604 
 275   0.0000       0.303942         8.2707 
 276   0.0000       0.319216         8.6863 
 277   0.0000       0.351665         9.5693 
 278   0.0000       0.382806        10.4167 
 279   0.0000       0.409923        11.1546 
 280   0.0000       0.420212        11.4346 
 281   0.0000       0.438899        11.9430 
 282   0.0000       0.445400        12.1199 
 283   0.0000       0.453105        12.3296 
 284   0.0000       0.457834        12.4583 
 285   0.0000       0.461470        12.5572 
 286   0.0000       0.479309        13.0427 
 287   0.0000       0.482663        13.1339 
 288   0.0000       0.485239        13.2040 
 289   0.0000       0.500131        13.6093 
 290   0.0000       0.504499        13.7281 
 291   0.0000       0.509254        13.8575 
 292   0.0000       0.520810        14.1720 
 293   0.0000       0.524832        14.2814 
 294   0.0000       0.536900        14.6098 
 295   0.0000       0.538685        14.6584 
 296   0.0000       0.542805        14.7705 
 297   0.0000       0.546814        14.8796 
 298   0.0000       0.550750        14.9867 
 299   0.0000       0.553725        15.0676 
 300   0.0000       0.560428        15.2500 
 301   0.0000       0.568013        15.4564 
 302   0.0000       0.574182        15.6243 
 303   0.0000       0.577321        15.7097 
 304   0.0000       0.580600        15.7989 
 305   0.0000       0.585839        15.9415 
 306   0.0000       0.589877        16.0514 
 307   0.0000       0.590941        16.0803 
 308   0.0000       0.591717        16.1014 
 309   0.0000       0.592954        16.1351 
 310   0.0000       0.603126        16.4119 
 311   0.0000       0.610494        16.6124 
 312   0.0000       0.611218        16.6321 
 313   0.0000       0.613118        16.6838 
 314   0.0000       0.615249        16.7418 
 315   0.0000       0.616977        16.7888 
 316   0.0000       0.620349        16.8806 
 317   0.0000       0.623413        16.9639 
 318   0.0000       0.624328        16.9888 
 319   0.0000       0.625753        17.0276 
 320   0.0000       0.631459        17.1829 
 321   0.0000       0.637770        17.3546 
 322   0.0000       0.640707        17.4345 
 323   0.0000       0.642021        17.4703 
 324   0.0000       0.643810        17.5190 
 325   0.0000       0.647888        17.6299 
 326   0.0000       0.650787        17.7088 
 327   0.0000       0.652261        17.7489 
 328   0.0000       0.658598        17.9214 
 329   0.0000       0.661278        17.9943 
 330   0.0000       0.666512        18.1367 
 331   0.0000       0.669804        18.2263 
 332   0.0000       0.672454        18.2984 
 333   0.0000       0.674460        18.3530 
 334   0.0000       0.678888        18.4735 
 335   0.0000       0.679776        18.4976 
 336   0.0000       0.680475        18.5167 
 337   0.0000       0.682761        18.5789 
 338   0.0000       0.684184        18.6176 
 339   0.0000       0.686415        18.6783 
 340   0.0000       0.690802        18.7977 
 341   0.0000       0.693325        18.8663 
 342   0.0000       0.694562        18.9000 
 343   0.0000       0.697840        18.9892 
 344   0.0000       0.701780        19.0964 
 345   0.0000       0.703033        19.1305 
 346   0.0000       0.703755        19.1502 
 347   0.0000       0.709459        19.3054 
 348   0.0000       0.710495        19.3335 
 349   0.0000       0.719342        19.5743 
 350   0.0000       0.720375        19.6024 
 351   0.0000       0.726635        19.7727 
 352   0.0000       0.728884        19.8339 
 353   0.0000       0.731166        19.8960 
 354   0.0000       0.735514        20.0143 
 355   0.0000       0.742907        20.2155 
 356   0.0000       0.744160        20.2496 
 357   0.0000       0.745984        20.2993 
 358   0.0000       0.748488        20.3674 
 359   0.0000       0.749954        20.4073 
 360   0.0000       0.751396        20.4465 
 361   0.0000       0.755140        20.5484 
 362   0.0000       0.757129        20.6025 
 363   0.0000       0.767793        20.8927 
 364   0.0000       0.769845        20.9486 
 365   0.0000       0.773852        21.0576 
 366   0.0000       0.774541        21.0763 
 367   0.0000       0.790122        21.5003 
 368   0.0000       0.797280        21.6951 
 369   0.0000       0.797570        21.7030 
 370   0.0000       0.803402        21.8617 
 371   0.0000       0.824147        22.4262 
[...]
      dz2     :     0.000689  d :    -0.000833
      dxz     :     0.000675
      dyz     :     0.000092
      dx2y2   :    -0.001520
      dxy     :    -0.000768
112 C s       :    -0.007025  s :    -0.007025
      pz      :    -0.005180  p :    -0.040287
      px      :    -0.027718
      py      :    -0.007389
113 H s       :     0.000157  s :     0.000157
114 H s       :    -0.000445  s :    -0.000445
115 H s       :    -0.000550  s :    -0.000550
116 H s       :     0.021184  s :     0.021184
117 H s       :     0.023786  s :     0.023786
118 H s       :     0.024455  s :     0.024455
119 H s       :     0.001519  s :     0.001519
120 H s       :     0.024482  s :     0.024482
121 H s       :     0.000011  s :     0.000011
122 O s       :     0.000163  s :     0.000163
      pz      :     0.001305  p :     0.005452
      px      :     0.000416
      py      :     0.003732


                      *****************************
                      * MAYER POPULATION ANALYSIS *
                      *****************************

  NA   - Mulliken gross atomic population
  ZA   - Total nuclear charge
  QA   - Mulliken gross atomic charge
  VA   - Mayer's total valence
  BVA  - Mayer's bonded valence
  FA   - Mayer's free valence

  ATOM       NA         ZA         QA         VA         BVA        FA
  0 N      7.5348     7.0000    -0.5348     3.3181     3.3181    -0.0000
  1 C      6.0193     6.0000    -0.0193     3.8609     3.8609     0.0000
  2 C      5.5866     6.0000     0.4134     3.9223     3.9223     0.0000
  3 O      8.4788     8.0000    -0.4788     2.0086     2.0086     0.0000
  4 H      0.7800     1.0000     0.2200     0.9516     0.9516     0.0000
  5 C      6.2690     6.0000    -0.2690     3.9205     3.9205     0.0000
  6 H      0.8182     1.0000     0.1818     0.9670     0.9670    -0.0000
  7 S     16.2191    16.0000    -0.2191     2.0011     2.0011     0.0000
  8 H      0.8200     1.0000     0.1800     0.9676     0.9676    -0.0000
  9 H      0.7955     1.0000     0.2045     0.9582     0.9582    -0.0000
 10 H      0.5756     1.0000     0.4244     0.8199     0.8199    -0.0000
 11 H      0.5768     1.0000     0.4232     0.8209     0.8209    -0.0000
 12 H      0.6069     1.0000     0.3931     0.8455     0.8455     0.0000
 13 N      7.4018     7.0000    -0.4018     3.2539     3.2539     0.0000
 14 C      6.0176     6.0000    -0.0176     3.9188     3.9188     0.0000
 15 C      5.5906     6.0000     0.4094     3.9104     3.9104     0.0000
 16 O      8.4957     8.0000    -0.4957     1.9848     1.9848     0.0000
 17 H      0.7060     1.0000     0.2940     0.9136     0.9136     0.0000
 18 H      0.8227     1.0000     0.1773     0.9686     0.9686     0.0000
 19 C      6.3681     6.0000    -0.3681     3.9295     3.9295     0.0000
 20 H      0.8423     1.0000     0.1577     0.9751     0.9751    -0.0000
 21 H      0.8608     1.0000     0.1392     0.9806     0.9806    -0.0000
 22 H      0.8628     1.0000     0.1372     0.9812     0.9812     0.0000
 23 N      7.4123     7.0000    -0.4123     3.2338     3.2338     0.0000
 24 C      6.1411     6.0000    -0.1411     3.8994     3.8994     0.0000
 25 C      5.5987     6.0000     0.4013     3.9139     3.9139     0.0000
 26 O      8.4882     8.0000    -0.4882     1.9916     1.9916     0.0000
 27 H      0.8253     1.0000     0.1747     0.9695     0.9695     0.0000
 28 H      0.8243     1.0000     0.1757     0.9691     0.9691     0.0000
 29 H      0.7091     1.0000     0.2909     0.9154     0.9154     0.0000
 30 N      7.4101     7.0000    -0.4101     3.2294     3.2294     0.0000
 31 C      6.0129     6.0000    -0.0129     3.9255     3.9255     0.0000
 32 C      5.5980     6.0000     0.4020     3.9112     3.9112     0.0000
 33 O      8.4988     8.0000    -0.4988     1.9828     1.9828     0.0000
 34 C      6.2449     6.0000    -0.2449     3.9486     3.9486     0.0000
 35 H      0.8587     1.0000     0.1413     0.9800     0.9800     0.0000
 36 H      0.8360     1.0000     0.1640     0.9731     0.9731     0.0000
 37 C      6.0741     6.0000    -0.0741     3.9800     3.9800     0.0000
 38 C      6.0185     6.0000    -0.0185     3.9205     3.9205     0.0000
 39 N      7.3850     7.0000    -0.3850     3.3578     3.3578     0.0000
 40 H      0.6911     1.0000     0.3089     0.9046     0.9046    -0.0000
 41 C      5.9109     6.0000     0.0891     3.9562     3.9562     0.0000
 42 C      6.0582     6.0000    -0.0582     3.9945     3.9945     0.0000
 43 C      6.1444     6.0000    -0.1444     3.9755     3.9755     0.0000
 44 H      0.8477     1.0000     0.1523     0.9768     0.9768     0.0000
 45 C      6.1697     6.0000    -0.1697     3.9777     3.9777     0.0000
 46 H      0.8574     1.0000     0.1426     0.9797     0.9797     0.0000
 47 C      6.1532     6.0000    -0.1532     3.9783     3.9783     0.0000
 48 H      0.8536     1.0000     0.1464     0.9786     0.9786     0.0000
 49 C      6.1651     6.0000    -0.1651     3.9736     3.9736     0.0000
 50 H      0.8484     1.0000     0.1516     0.9770     0.9770     0.0000
 51 H      0.8291     1.0000     0.1709     0.9708     0.9708     0.0000
 52 H      0.7104     1.0000     0.2896     0.9161     0.9161     0.0000
 53 H      0.8283     1.0000     0.1717     0.9705     0.9705     0.0000
 54 N      7.4115     7.0000    -0.4115     3.2403     3.2403     0.0000
 55 C      6.0151     6.0000    -0.0151     3.9257     3.9257     0.0000
 56 C      5.5948     6.0000     0.4052     3.9061     3.9061     0.0000
 57 O      8.4894     8.0000    -0.4894     1.9950     1.9950     0.0000
 58 C      6.2304     6.0000    -0.2304     3.9501     3.9501     0.0000
 59 H      0.8500     1.0000     0.1500     0.9775     0.9775     0.0000
 60 H      0.8674     1.0000     0.1326     0.9824     0.9824     0.0000
 61 C      6.2766     6.0000    -0.2766     3.9634     3.9634    -0.0000
 62 H      0.8802     1.0000     0.1198     0.9857     0.9857    -0.0000
 63 H      0.8696     1.0000     0.1304     0.9830     0.9830    -0.0000
 64 C      5.6328     6.0000     0.3672     3.9356     3.9356    -0.0000
 65 O      8.6320     8.0000    -0.6320     1.8680     1.8680     0.0000
 66 O      8.6919     8.0000    -0.6919     1.7005     1.7005     0.0000
 67 H      0.7089     1.0000     0.2911     0.9152     0.9152     0.0000
 68 H      0.8336     1.0000     0.1664     0.9723     0.9723     0.0000
 69 N      7.4109     7.0000    -0.4109     3.2301     3.2301     0.0000
 70 C      6.0205     6.0000    -0.0205     3.9285     3.9285     0.0000
 71 C      5.5915     6.0000     0.4085     3.9099     3.9099     0.0000
 72 O      8.4948     8.0000    -0.4948     1.9897     1.9897     0.0000
 73 H      0.8205     1.0000     0.1795     0.9678     0.9678     0.0000
 74 C      6.0598     6.0000    -0.0598     3.8723     3.8723     0.0000
 75 H      0.8364     1.0000     0.1636     0.9732     0.9732     0.0000
 76 H      0.8583     1.0000     0.1417     0.9799     0.9799     0.0000
 77 O      8.5397     8.0000    -0.5397     1.8739     1.8739     0.0000
 78 H      0.6692     1.0000     0.3308     0.8906     0.8906    -0.0000
 79 H      0.7094     1.0000     0.2906     0.9155     0.9155     0.0000
 80 N      7.4106     7.0000    -0.4106     3.2354     3.2354     0.0000
 81 C      6.0211     6.0000    -0.0211     3.9292     3.9292     0.0000
 82 C      5.5928     6.0000     0.4072     3.9104     3.9104     0.0000
 83 O      8.4964     8.0000    -0.4964     1.9883     1.9883     0.0000
 84 H      0.8218     1.0000     0.1782     0.9682     0.9682     0.0000
 85 C      6.0591     6.0000    -0.0591     3.8731     3.8731     0.0000
 86 H      0.8373     1.0000     0.1627     0.9735     0.9735     0.0000
 87 H      0.8590     1.0000     0.1410     0.9801     0.9801     0.0000
 88 O      8.5389     8.0000    -0.5389     1.8731     1.8731     0.0000
 89 H      0.6707     1.0000     0.3293     0.8915     0.8915     0.0000
 90 H      0.6979     1.0000     0.3021     0.9087     0.9087     0.0000
 91 N      7.4086     7.0000    -0.4086     3.2357     3.2357     0.0000
 92 C      6.0123     6.0000    -0.0123     3.9283     3.9283     0.0000
 93 C      5.6007     6.0000     0.3993     3.9135     3.9135     0.0000
 94 O      8.4946     8.0000    -0.4946     1.9882     1.9882     0.0000
 95 C      6.2657     6.0000    -0.2657     3.9390     3.9390     0.0000
 96 H      0.8149     1.0000     0.1851     0.9657     0.9657     0.0000
 97 H      0.8339     1.0000     0.1661     0.9724     0.9724     0.0000
 98 C      5.5916     6.0000     0.4084     3.9045     3.9045     0.0000
 99 O      8.5001     8.0000    -0.5001     1.9887     1.9887     0.0000
100 N      7.5190     7.0000    -0.5190     3.1482     3.1482     0.0000
101 H      0.7195     1.0000     0.2805     0.9213     0.9213     0.0000
102 H      0.7209     1.0000     0.2791     0.9221     0.9221     0.0000
103 H      0.8228     1.0000     0.1772     0.9686     0.9686     0.0000
104 H      0.7012     1.0000     0.2988     0.9107     0.9107     0.0000
105 N      7.4182     7.0000    -0.4182     3.2249     3.2249     0.0000
106 C      6.0342     6.0000    -0.0342     3.9223     3.9223     0.0000
107 C      5.6241     6.0000     0.3759     3.9336     3.9336     0.0000
108 O      8.6035     8.0000    -0.6035     1.8988     1.8987     0.0000
109 C      6.2387     6.0000    -0.2387     3.9353     3.9353     0.0000
110 C      6.2536     6.0000    -0.2536     3.8414     3.8395     0.0019
111 S     15.5433    16.0000     0.4567     2.9847     2.0997     0.8849
112 C      6.3916     6.0000    -0.3916     3.8223     3.8204     0.0019
113 H      0.8466     1.0000     0.1534     0.9765     0.9765     0.0000
114 H      0.8531     1.0000     0.1469     0.9784     0.9784     0.0000
115 H      0.8339     1.0000     0.1661     0.9724     0.9724     0.0000
116 H      0.7916     1.0000     0.2084     0.9566     0.9560     0.0006
117 H      0.7791     1.0000     0.2209     0.9512     0.9505     0.0007
118 H      0.7818     1.0000     0.2182     0.9524     0.9516     0.0008
119 H      0.7909     1.0000     0.2091     0.9563     0.9563     0.0000
120 H      0.7821     1.0000     0.2179     0.9525     0.9518     0.0008
121 H      0.7005     1.0000     0.2995     0.9103     0.9103     0.0000
122 O      8.6741     8.0000    -0.6741     1.7130     1.7130     0.0000

  Mayer bond orders larger than 0.100000
B(  0-N ,  1-C ) :   0.9151 B(  0-N , 10-H ) :   0.7762 B(  0-N , 11-H ) :   0.7830 
B(  0-N , 12-H ) :   0.8153 B(  1-C ,  2-C ) :   0.9462 B(  1-C ,  4-H ) :   0.9218 
B(  1-C ,  5-C ) :   0.9938 B(  2-C ,  3-O ) :   1.7305 B(  2-C , 13-N ) :   1.2080 
B(  3-O , 13-N ) :   0.1617 B(  5-C ,  6-H ) :   0.9462 B(  5-C ,  7-S ) :   1.0077 
B(  5-C ,  8-H ) :   0.9472 B(  7-S ,  9-H ) :   0.9489 B( 13-N , 14-C ) :   0.9571 
B( 13-N , 17-H ) :   0.8780 B( 14-C , 15-C ) :   0.9526 B( 14-C , 18-H ) :   0.9320 
B( 14-C , 19-C ) :   0.9945 B( 15-C , 16-O ) :   1.7341 B( 15-C , 23-N ) :   1.1856 
B( 16-O , 23-N ) :   0.1543 B( 19-C , 20-H ) :   0.9589 B( 19-C , 21-H ) :   0.9708 
B( 19-C , 22-H ) :   0.9700 B( 23-N , 24-C ) :   0.9724 B( 23-N , 29-H ) :   0.8838 
B( 24-C , 25-C ) :   0.9659 B( 24-C , 27-H ) :   0.9392 B( 24-C , 28-H ) :   0.9389 
B( 25-C , 26-O ) :   1.7319 B( 25-C , 30-N ) :   1.1844 B( 26-O , 30-N ) :   0.1513 
B( 30-N , 31-C ) :   0.9621 B( 30-N , 52-H ) :   0.8824 B( 31-C , 32-C ) :   0.9525 
B( 31-C , 34-C ) :   0.9740 B( 31-C , 53-H ) :   0.9360 B( 32-C , 33-O ) :   1.7230 
B( 32-C , 54-N ) :   1.1958 B( 33-O , 54-N ) :   0.1562 B( 34-C , 35-H ) :   0.9623 
B( 34-C , 36-H ) :   0.9439 B( 34-C , 37-C ) :   1.0187 B( 37-C , 38-C ) :   1.6338 
B( 37-C , 42-C ) :   1.1882 B( 38-C , 39-N ) :   1.1603 B( 38-C , 51-H ) :   0.9544 
B( 39-N , 40-H ) :   0.8827 B( 39-N , 41-C ) :   1.1308 B( 41-C , 42-C ) :   1.3171 
B( 41-C , 49-C ) :   1.3342 B( 42-C , 43-C ) :   1.3283 B( 43-C , 44-H ) :   0.9573 
B( 43-C , 45-C ) :   1.5176 B( 43-C , 49-C ) :   0.1225 B( 45-C , 46-H ) :   0.9613 
B( 45-C , 47-C ) :   1.3793 B( 47-C , 48-H ) :   0.9602 B( 47-C , 49-C ) :   1.5104 
B( 49-C , 50-H ) :   0.9598 B( 54-N , 55-C ) :   0.9633 B( 54-N , 67-H ) :   0.8736 
B( 55-C , 56-C ) :   0.9514 B( 55-C , 58-C ) :   0.9805 B( 55-C , 68-H ) :   0.9362 
B( 56-C , 57-O ) :   1.7351 B( 56-C , 69-N ) :   1.1808 B( 57-O , 69-N ) :   0.1508 
B( 58-C , 59-H ) :   0.9565 B( 58-C , 60-H ) :   0.9635 B( 58-C , 61-C ) :   1.0032 
B( 61-C , 62-H ) :   0.9616 B( 61-C , 63-H ) :   0.9656 B( 61-C , 64-C ) :   0.9470 
B( 64-C , 65-O ) :   1.5683 B( 64-C , 66-O ) :   1.4115 B( 65-O , 66-O ) :   0.2381 
B( 69-N , 70-C ) :   0.9693 B( 69-N , 79-H ) :   0.8800 B( 70-C , 71-C ) :   0.9524 
B( 70-C , 73-H ) :   0.9315 B( 70-C , 74-C ) :   0.9794 B( 71-C , 72-O ) :   1.7285 
B( 71-C , 80-N ) :   1.1904 B( 72-O , 80-N ) :   0.1539 B( 74-C , 75-H ) :   0.9451 
B( 74-C , 76-H ) :   0.9536 B( 74-C , 77-O ) :   0.9512 B( 77-O , 78-H ) :   0.8727 
B( 80-N , 81-C ) :   0.9698 B( 80-N , 90-H ) :   0.8710 B( 81-C , 82-C ) :   0.9523 
B( 81-C , 84-H ) :   0.9319 B( 81-C , 85-C ) :   0.9792 B( 82-C , 83-O ) :   1.7256 
B( 82-C , 91-N ) :   1.1935 B( 83-O , 91-N ) :   0.1530 B( 85-C , 86-H ) :   0.9452 
B( 85-C , 87-H ) :   0.9537 B( 85-C , 88-O ) :   0.9516 B( 88-O , 89-H ) :   0.8737 
B( 91-N , 92-C ) :   0.9655 B( 91-N ,104-H ) :   0.8738 B( 92-C , 93-C ) :   0.9502 
B( 92-C , 95-C ) :   0.9887 B( 92-C ,103-H ) :   0.9340 B( 93-C , 94-O ) :   1.7270 
B( 93-C ,105-N ) :   1.1951 B( 94-O ,105-N ) :   0.1485 B( 95-C , 96-H ) :   0.9331 
B( 95-C , 97-H ) :   0.9492 B( 95-C , 98-C ) :   0.9730 B( 98-C , 99-O ) :   1.7338 
B( 98-C ,100-N ) :   1.1723 B( 99-O ,100-N ) :   0.1524 B(100-N ,101-H ) :   0.9023 
B(100-N ,102-H ) :   0.9024 B(105-N ,106-C ) :   0.9597 B(105-N ,121-H ) :   0.8613 
B(106-C ,107-C ) :   0.9163 B(106-C ,109-C ) :   0.9806 B(106-C ,113-H ) :   0.9439 
B(107-C ,108-O ) :   1.5926 B(107-C ,122-O ) :   1.4096 B(108-O ,122-O ) :   0.2331 
B(109-C ,110-C ) :   0.9979 B(109-C ,114-H ) :   0.9599 B(109-C ,115-H ) :   0.9449 
B(110-C ,111-S ) :   0.9740 B(110-C ,116-H ) :   0.9253 B(110-C ,117-H ) :   0.9115 
B(111-S ,112-C ) :   1.0069 B(112-C ,118-H ) :   0.9287 B(112-C ,119-H ) :   0.9416 
B(112-C ,120-H ) :   0.9287 

-------
TIMINGS
-------

Total SCF time: 0 days 0 hours 0 min 39 sec 

Total time                  ....      39.701 sec
Sum of individual times     ....      36.988 sec  ( 93.2%)

Fock matrix formation       ....      34.229 sec  ( 86.2%)
Diagonalization             ....       2.126 sec  (  5.4%)
Density matrix formation    ....       0.072 sec  (  0.2%)
Population analysis         ....       0.221 sec  (  0.6%)
Initial guess               ....       0.340 sec  (  0.9%)
Orbital Transformation      ....       0.000 sec  (  0.0%)
Orbital Orthonormalization  ....       0.000 sec  (  0.0%)
DIIS solution               ....       0.000 sec  (  0.0%)


-------------------------------------------------------------------------------
                          DFT DISPERSION CORRECTION                            
                                                                               
                              DFTD3 V3.1  Rev 1                                
                          USING Becke-Johnson damping                          
-------------------------------------------------------------------------------
Hartree-Fock is recognized
Active option DFTDOPT                   ...         4   

molecular C6(AA) [au] = 156776.347103 


            DFT-D V3
 parameters
 using HF/MINIX parameters
 s6 scaling factor         :     1.0000 
 a1 scaling factor         :     0.4171 
 s8 scaling factor         :     0.8777 
 a2 scaling factor         :     2.9149 
 ad hoc parameters k1-k3   :    16.0000     1.3333    -4.0000 

 Edisp/kcal,au: -410.402384953303  -0.654017760908 
 E6   /kcal   : -232.260480037 
 E8   /kcal   : -178.141904917 
 % E8         :  43.406644661 

-------------------------   ----------------
Dispersion correction           -0.654017761
-------------------------   ----------------

------------------   -----------------
gCP+bas correction        -0.669911201
------------------   -----------------
----------------------------   ----------------
Total correction to HF/MINIX       -1.323928962
----------------------------   ----------------


-------------------------   --------------------
FINAL SINGLE POINT ENERGY     -4001.324953706427
-------------------------   --------------------


                            ***************************************
                            *     ORCA property calculations      *
                            ***************************************

                                    ---------------------
                                    Active property flags
                                    ---------------------
   (+) Dipole Moment


------------------------------------------------------------------------------
                       ORCA ELECTRIC PROPERTIES CALCULATION
------------------------------------------------------------------------------

Dipole Moment Calculation                       ... on
Quadrupole Moment Calculation                   ... off
Polarizability Calculation                      ... off
GBWName                                         ... CAGWESSNM.gbw
Electron density file                           ... CAGWESSNM.scfp
The origin for moment calculation is the CENTER OF MASS  = (26.335152,  0.375959 19.153913)

-------------
DIPOLE MOMENT
-------------
                                X             Y             Z
Electronic contribution:      8.31546       4.11298       6.49184
Nuclear contribution   :    -32.97711      -6.59266     -23.56441
                        -----------------------------------------
Total Dipole Moment    :    -24.66165      -2.47968     -17.07257
                        -----------------------------------------
Magnitude (a.u.)       :     30.09682
Magnitude (Debye)      :     76.50003



--------------------
Rotational spectrum 
--------------------
 
Rotational constants in cm-1:     0.002350     0.000189     0.000177 
Rotational constants in MHz :    70.452482     5.662449     5.301629 

 Dipole components along the rotational axes: 
x,y,z [a.u.] :    30.013574     0.136608     2.232721 
x,y,z [Debye]:    76.288443     0.347231     5.675127 

 
--------------------------------------------------------------------------
WARNING: No preset parameters were found for the device that Open MPI
detected:

  Local host:            c0711a-s29
  Device name:           mlx5_0
  Device vendor ID:      0x02c9
  Device vendor part ID: 4123

Default device parameters will be used, which may result in lower
performance.  You can edit any of the files specified by the
btl_openib_device_param_files MCA parameter to set values for your
device.

NOTE: You can turn off this warning by setting the MCA parameter
      btl_openib_warn_no_device_params_found to 0.
--------------------------------------------------------------------------
--------------------------------------------------------------------------
WARNING: There was an error initializing an OpenFabrics device.

  Local host:   c0711a-s29
  Local device: mlx5_0
--------------------------------------------------------------------------
[c0711a-s29.ufhpc:26903] 14 more processes have sent help message help-mpi-btl-openib.txt / no device params found
[c0711a-s29.ufhpc:26903] Set MCA parameter "orte_base_help_aggregate" to 0 to see all help / error messages
[c0711a-s29.ufhpc:26903] 14 more processes have sent help message help-mpi-btl-openib.txt / error in device init

Timings for individual modules:

Sum of individual times         ...       41.595 sec (=   0.693 min)
GTO integral calculation        ...        1.300 sec (=   0.022 min)   3.1 %
SCF iterations                  ...       40.295 sec (=   0.672 min)  96.9 %
                             ****ORCA TERMINATED NORMALLY****
TOTAL RUN TIME: 0 days 0 hours 0 minutes 42 seconds 805 msec
