/home/zfg2013/blue_zfg2013/INPS
c0702a-s28.ufhpc
Fri Aug  4 00:11:22 EDT 2023

                                 *****************
                                 * O   R   C   A *
                                 *****************

           --- An Ab Initio, DFT and Semiempirical electronic structure package ---

                  #######################################################
                  #                        -***-                        #
                  #          Department of theory and spectroscopy      #
                  #               Directorship: Frank Neese             #
                  #        Max Planck Institute fuer Kohlenforschung    #
                  #                Kaiser Wilhelm Platz 1               #
                  #                 D-45470 Muelheim/Ruhr               #
                  #                      Germany                        #
                  #                                                     #
                  #                  All rights reserved                #
                  #                        -***-                        #
                  #######################################################


                         Program Version 4.2.1 -  RELEASE  -


 With contributions from (in alphabetic order):
   Daniel Aravena         : Magnetic Suceptibility
   Michael Atanasov       : Ab Initio Ligand Field Theory (pilot matlab implementation)
   Alexander A. Auer      : GIAO ZORA, VPT2
   Ute Becker             : Parallelization
   Giovanni Bistoni       : ED, misc. LED, open-shell LED, HFLD
   Martin Brehm           : Molecular dynamics
   Dmytro Bykov           : SCF Hessian
   Vijay G. Chilkuri      : MRCI spin determinant printing, contributions to CSF-ICE
   Dipayan Datta          : RHF DLPNO-CCSD density
   Achintya Kumar Dutta   : EOM-CC, STEOM-CC
   Dmitry Ganyushin       : Spin-Orbit,Spin-Spin,Magnetic field MRCI
   Miquel Garcia          : C-PCM Hessian, Gaussian charge scheme
   Yang Guo               : DLPNO-NEVPT2, CIM, IAO-localization
   Andreas Hansen         : Spin unrestricted coupled pair/coupled cluster methods
   Benjamin Helmich-Paris : CASSCF linear response (MC-RPA)
   Lee Huntington         : MR-EOM, pCC
   Robert Izsak           : Overlap fitted RIJCOSX, COSX-SCS-MP3, EOM
   Christian Kollmar      : KDIIS, OOCD, Brueckner-CCSD(T), CCSD density
   Simone Kossmann        : Meta GGA functionals, TD-DFT gradient, OOMP2, MP2 Hessian
   Martin Krupicka        : AUTO-CI
   Lucas Lang             : DCDCAS
   Dagmar Lenk            : GEPOL surface, SMD
   Dimitrios Liakos       : Extrapolation schemes; Compound Job, initial MDCI parallelization
   Dimitrios Manganas     : Further ROCIS development; embedding schemes
   Dimitrios Pantazis     : SARC Basis sets
   Taras Petrenko         : DFT Hessian,TD-DFT gradient, ASA, ECA, R-Raman, ABS, FL, XAS/XES, NRVS
   Peter Pinski           : DLPNO-MP2, DLPNO-MP2 Gradient
   Christoph Reimann      : Effective Core Potentials
   Marius Retegan         : Local ZFS, SOC
   Christoph Riplinger    : Optimizer, TS searches, QM/MM, DLPNO-CCSD(T), (RO)-DLPNO pert. Triples
   Tobias Risthaus        : Range-separated hybrids, TD-DFT gradient, RPA, STAB
   Michael Roemelt        : Original ROCIS implementation
   Masaaki Saitow         : Open-shell DLPNO-CCSD energy and density
   Barbara Sandhoefer     : DKH picture change effects
   Avijit Sen             : IP-ROCIS
   Kantharuban Sivalingam : CASSCF convergence, NEVPT2, FIC-MRCI
   Bernardo de Souza      : ESD, SOC TD-DFT
   Georgi Stoychev        : AutoAux, RI-MP2 NMR
   Willem Van den Heuvel  : Paramagnetic NMR
   Boris Wezisla          : Elementary symmetry handling
   Frank Wennmohs         : Technical directorship


 We gratefully acknowledge several colleagues who have allowed us to
 interface, adapt or use parts of their codes:
   Stefan Grimme, W. Hujo, H. Kruse,             : VdW corrections, initial TS optimization,
                  C. Bannwarth                     DFT functionals, gCP, sTDA/sTD-DF
   Ed Valeev, F. Pavosevic, A. Kumar             : LibInt (2-el integral package), F12 methods
   Garnet Chan, S. Sharma, J. Yang, R. Olivares  : DMRG
   Ulf Ekstrom                                   : XCFun DFT Library
   Mihaly Kallay                                 : mrcc  (arbitrary order and MRCC methods)
   Andreas Klamt, Michael Diedenhofen            : otool_cosmo (COSMO solvation model)
   Jiri Pittner, Ondrej Demel                    : Mk-CCSD
   Frank Weinhold                                : gennbo (NPA and NBO analysis)
   Christopher J. Cramer and Donald G. Truhlar   : smd solvation model
   Lars Goerigk                                  : TD-DFT with DH, B97 family of functionals
   V. Asgeirsson, H. Jonsson                     : NEB implementation
   FAccTs GmbH                                   : IRC, NEB, NEB-TS, Multilevel, MM, QM/MM, CI optimization
   S Lehtola, MJT Oliveira, MAL Marques          : LibXC Library


 Your calculation uses the libint2 library for the computation of 2-el integrals
 For citations please refer to: http://libint.valeyev.net

 Your ORCA version has been built with support for libXC version: 4.2.3
 For citations please refer to: https://tddft.org/programs/libxc/

 This ORCA versions uses:
   CBLAS   interface :  Fast vector & matrix operations
   LAPACKE interface :  Fast linear algebra routines
   SCALAPACK package :  Parallel linear algebra routines


Your calculation utilizes the geometrical counterpoise correction gCP
Please cite in your paper:
H.Kruse, S. Grimme J.Chem.Phys., 136, (2012), 154101 
   

Your calculation utilizes the atom-pairwise dispersion correction
with the Becke-Johnson damping scheme (D3BJ)
Cite in your paper:
S.Grimme, S.Ehrlich, L.Goerigk, J Comput Chem, (2011), 32, 1456–1465 
S.Grimme, J.Antony, S.Ehrlich and H.Krieg, J.Chem.Phys., 132, (2010), 154104 
   

Your calculation utilizes the SMD solvation module
Please cite in your paper:
A.V. Marenich, C.J. Cramer, D.G. Truhlar J. Phys. Chem. B, 113, (2009), 6378 

----- Orbital basis set information -----
Your calculation utilizes the basis: MINIX,
   a combination of small basis sets by S. Grimme (see manual for definitions).

================================================================================
                                        WARNINGS
                       Please study these warnings very carefully!
================================================================================


WARNING: your system is open-shell and RHF/RKS was chosen
  ===> : WILL SWITCH to UHF/UKS


INFO   : the flag for use of LIBINT has been found!

================================================================================
                                       INPUT FILE
================================================================================
NAME = EDEDVRRSK.inp
|  1> !HF-3c CPCM KDIIS SmallPrint
|  2> %PAL NPROCS 15 END
|  3> %maxcore 10000
|  4> %CPCM
|  5> SMD TRUE
|  6> SMDSOLVENT "WATER"
|  7> END
|  8> 
|  9> %scf
| 10> SCFmode Direct
| 11> maxiter 10000
| 12> 
| 13> end
| 14> 
| 15> %geom
| 16> 
| 17> Constraints
| 18> {C 2 C}
| 19> {C 19 C}
| 20> {C 31 C}
| 21> {C 46 C}
| 22> {C 58 C}
| 23> {C 74 C}
| 24> {C 98 C}
| 25> {C 122 C}
| 26> {C 133 C}
| 27> 
| 28> end
| 29> 
| 30> maxiter 10000
| 31> 
| 32> end
| 33> 
| 34> * xyz 0 2
| 35>    N        0.00000         0.00000         0.00000
| 36>    C        1.46058         0.00000         0.00000
| 37>    C        1.89507         0.00000         1.48273
| 38>    O        1.08633         0.00000         2.41130
| 39>    C        2.01982         1.19695         -0.78203
| 40>    H        1.25279         1.64150         -1.42949
| 41>    H        2.32031         1.99894         -0.09593
| 42>    C        3.19461         0.78507         -1.66877
| 43>    H        3.94521         0.20824         -1.11820
| 44>    H        2.84393         0.14915         -2.48968
| 45>    C        3.88067         1.99959         -2.22101
| 46>    O        4.43749         2.86007         -1.55870
| 47>    O        3.83678         2.07124         -3.56104
| 48>    H        -0.45969         0.02458         0.90754
| 49>    H        1.78076         -0.95206         -0.44100
| 50>    H        -0.34000         0.08381         -0.95801
| 51>    H        -0.34000         0.94706         -0.16699
| 52>    N        3.19713         -0.00000         1.79936
| 53>    C        3.60888         0.00022         3.20452
| 54>    C        5.15025         0.00016         3.19519
| 55>    O        5.81262         -0.00005         2.15838
| 56>    C        3.06785         -1.22580         3.93884
| 57>    C        3.09381         -1.02701         5.42658
| 58>    O        3.60224         -0.10091         6.03819
| 59>    O        2.51206         -2.04834         6.08380
| 60>    H        3.25714         0.93690         3.65354
| 61>    H        3.65502         -2.11861         3.69551
| 62>    H        2.02489         -1.40896         3.65550
| 63>    H        3.91421         -0.19908         1.10526
| 64>    N        5.82726         0.00032         4.35158
| 65>    C        7.28781         0.00004         4.34274
| 66>    C        7.73127         0.00034         5.82282
| 67>    O        6.92817         0.00073         6.75626
| 68>    C        7.84254         1.19668         3.55703
| 69>    H        7.07169         1.64122         2.91412
| 70>    H        8.14733         1.99880         4.24109
| 71>    C        9.01186         0.78435         2.66331
| 72>    H        9.76567         0.20752         3.20948
| 73>    H        8.65610         0.14828         1.84470
| 74>    C        9.69480         1.99859         2.10661
| 75>    O        10.25579         2.85913         2.76531
| 76>    O        9.64282         2.06991         0.76685
| 77>    H        5.37308         0.02522         5.26189
| 78>    H        7.60513         -0.95219         3.90006
| 79>    N        9.03522         0.00017         6.13156
| 80>    C        9.45547         0.00067         7.53420
| 81>    C        10.99676         0.00030         7.51554
| 82>    O        11.65284         -0.00029         6.47474
| 83>    C        8.91866         -1.22506         8.27210
| 84>    C        8.95366         -1.02589         9.75961
| 85>    O        9.46596         -0.09973         10.36789
| 86>    O        8.37570         -2.04694         10.42060
| 87>    H        9.10663         0.93753         7.98510
| 88>    H        9.50417         -2.11804         8.02545
| 89>    H        7.87397         -1.40809         7.99513
| 90>    H        9.74805         -0.19923         5.43319
| 91>    N        11.68075         0.00064         8.66782
| 92>    C        13.14137         0.00007         8.65014
| 93>    C        13.60094         0.00066         10.12140
| 94>    O        12.81706         0.00145         11.06957
| 95>    C        13.69404         1.18001         7.81729
| 96>    C        13.41560         2.54552         8.45345
| 97>    C        15.18734         1.03607         7.51635
| 98>    H        13.45758         -0.94869         8.19791
| 99>    H        11.22779         0.36681         9.50065
|100>    H        13.17953         1.17068         6.84619
|101>    H        12.34623         2.68668         8.63878
|102>    H        13.74353         3.35183         7.78829
|103>    H        13.94643         2.66521         9.40387
|104>    H        15.50345         1.79002         6.78701
|105>    H        15.40904         0.05171         7.09181
|106>    H        15.80076         1.17336         8.41215
|107>    N        14.90839         0.00031         10.41492
|108>    C        15.34371         0.00108         11.80855
|109>    C        16.88302         0.00042         11.78076
|110>    O        17.53207         -0.00057         10.73576
|111>    C        14.78109         -1.22077         12.54991
|112>    H        15.29606         -2.13167         12.21768
|113>    H        13.72415         -1.35236         12.28599
|114>    C        14.88537         -1.10490         14.07062
|115>    H        14.48258         -0.14041         14.40367
|116>    H        15.93491         -1.13545         14.38174
|117>    C        14.12991         -2.23051         14.76963
|118>    H        14.52466         -3.20881         14.47708
|119>    H        13.06662         -2.19170         14.51566
|120>    N        14.31387         -2.07725         16.21276
|121>    H        15.25280         -1.87341         16.54583
|122>    C        13.33836         -2.20742         17.14657
|123>    N        13.40813         -2.10082         18.44582
|124>    H        13.02600         -2.11783         19.40088
|125>    H        14.30585         -1.87974         18.89713
|126>    N        12.10898         -2.48435         17.00004
|127>    H        11.70883         -2.65386         16.09540
|128>    H        11.54070         -2.53317         17.83177
|129>    H        15.59433         -0.26971         9.71407
|130>    H        14.99169         0.93310         12.26646
|131>    N        17.57386         0.00091         12.92895
|132>    C        19.03365         0.00006         12.90259
|133>    C        19.49268         0.00094         14.37212
|134>    O        18.70567         0.00212         15.31758
|135>    C        19.55984         1.22177         12.13469
|136>    H        19.40699         2.13277         12.72801
|137>    H        18.97609         1.35323         11.21488
|138>    C        21.03583         1.10575         11.75413
|139>    H        21.22482         0.14117         11.26702
|140>    H        21.66204         1.13642         12.65201
|141>    C        21.46101         2.23119         10.81661
|142>    H        21.30792         3.20958         11.28331
|143>    H        20.88470         2.19226         9.88766
|144>    N        22.88851         2.07782         10.53613
|145>    H        23.50066         1.87408         11.32216
|146>    C        23.46707         2.20776         9.31592
|147>    N        24.72203         2.10105         8.97244
|148>    H        25.50786         2.11791         8.30863
|149>    H        25.43339         1.88004         9.68207
|150>    N        22.94036         2.48454         8.19542
|151>    H        21.95570         2.65408         8.10093
|152>    H        23.55045         2.53320         7.39385
|153>    H        17.12508         0.27110         13.80085
|154>    H        19.35715         -0.93205         12.42428
|155>    N        20.80014         0.00042         14.66565
|156>    C        21.23582         0.00148         16.06042
|157>    C        22.77466         0.00054         16.05466
|158>    O        23.44329         -0.00085         15.02183
|159>    H        20.90309         0.93877         16.52387
|160>    C        20.70120         -1.20357         16.84584
|161>    H        19.61895         -1.30250         16.72173
|162>    H        21.16918         -2.13559         16.50725
|163>    O        20.96393         -1.05977         18.24685
|164>    H        20.40199         -1.71691         18.69819
|165>    H        21.53049         -0.04279         13.95902
|166>    N        23.44901         0.00123         17.21261
|167>    C        24.90839         0.00011         17.20714
|168>    C        25.34644         0.00131         18.68110
|169>    O        24.55230         0.00288         19.62016
|170>    C        25.44085         1.22149         16.44481
|171>    C        26.96257         1.22911         16.27376
|172>    C        27.41121         2.36642         15.35125
|173>    C        28.93474         2.43201         15.25399
|174>    N        29.33867         3.49700         14.34530
|175>    H        25.30480         -0.85805         16.70582
|176>    H        25.12915         2.10441         16.96268
|177>    H        24.96660         1.22080         15.48565
|178>    H        27.27292         0.28835         15.86934
|179>    H        27.41098         1.35016         17.23770
|180>    H        27.02861         3.29219         15.72735
|181>    H        26.98385         2.20577         14.38354
|182>    H        29.30609         1.49489         14.89509
|183>    H        29.33805         2.61174         16.22864
|184>    H        30.35582         3.57303         14.34135
|185>    H        28.98189         4.38928         14.68728
|186>    H        28.94797         3.32064         13.41974
|187>    H        23.11256         0.43118         18.07421
|188>    O        26.67613         0.00054         18.92012
|189> *
|190> 
|191>                          ****END OF INPUT****
================================================================================

                       ****************************
                       * Single Point Calculation *
                       ****************************

---------------------------------
CARTESIAN COORDINATES (ANGSTROEM)
---------------------------------
  N      0.000000    0.000000    0.000000
  C      1.460580    0.000000    0.000000
  C      1.895070    0.000000    1.482730
  O      1.086330    0.000000    2.411300
  C      2.019820    1.196950   -0.782030
  H      1.252790    1.641500   -1.429490
  H      2.320310    1.998940   -0.095930
  C      3.194610    0.785070   -1.668770
  H      3.945210    0.208240   -1.118200
  H      2.843930    0.149150   -2.489680
  C      3.880670    1.999590   -2.221010
  O      4.437490    2.860070   -1.558700
  O      3.836780    2.071240   -3.561040
  H     -0.459690    0.024580    0.907540
  H      1.780760   -0.952060   -0.441000
  H     -0.340000    0.083810   -0.958010
  H     -0.340000    0.947060   -0.166990
  N      3.197130   -0.000000    1.799360
  C      3.608880    0.000220    3.204520
  C      5.150250    0.000160    3.195190
  O      5.812620   -0.000050    2.158380
  C      3.067850   -1.225800    3.938840
  C      3.093810   -1.027010    5.426580
  O      3.602240   -0.100910    6.038190
  O      2.512060   -2.048340    6.083800
  H      3.257140    0.936900    3.653540
  H      3.655020   -2.118610    3.695510
  H      2.024890   -1.408960    3.655500
  H      3.914210   -0.199080    1.105260
  N      5.827260    0.000320    4.351580
  C      7.287810    0.000040    4.342740
  C      7.731270    0.000340    5.822820
  O      6.928170    0.000730    6.756260
  C      7.842540    1.196680    3.557030
  H      7.071690    1.641220    2.914120
  H      8.147330    1.998800    4.241090
  C      9.011860    0.784350    2.663310
  H      9.765670    0.207520    3.209480
  H      8.656100    0.148280    1.844700
  C      9.694800    1.998590    2.106610
  O     10.255790    2.859130    2.765310
  O      9.642820    2.069910    0.766850
  H      5.373080    0.025220    5.261890
  H      7.605130   -0.952190    3.900060
  N      9.035220    0.000170    6.131560
  C      9.455470    0.000670    7.534200
  C     10.996760    0.000300    7.515540
  O     11.652840   -0.000290    6.474740
  C      8.918660   -1.225060    8.272100
  C      8.953660   -1.025890    9.759610
  O      9.465960   -0.099730   10.367890
  O      8.375700   -2.046940   10.420600
  H      9.106630    0.937530    7.985100
  H      9.504170   -2.118040    8.025450
  H      7.873970   -1.408090    7.995130
  H      9.748050   -0.199230    5.433190
  N     11.680750    0.000640    8.667820
  C     13.141370    0.000070    8.650140
  C     13.600940    0.000660   10.121400
  O     12.817060    0.001450   11.069570
  C     13.694040    1.180010    7.817290
  C     13.415600    2.545520    8.453450
  C     15.187340    1.036070    7.516350
  H     13.457580   -0.948690    8.197910
  H     11.227790    0.366810    9.500650
  H     13.179530    1.170680    6.846190
  H     12.346230    2.686680    8.638780
  H     13.743530    3.351830    7.788290
  H     13.946430    2.665210    9.403870
  H     15.503450    1.790020    6.787010
  H     15.409040    0.051710    7.091810
  H     15.800760    1.173360    8.412150
  N     14.908390    0.000310   10.414920
  C     15.343710    0.001080   11.808550
  C     16.883020    0.000420   11.780760
  O     17.532070   -0.000570   10.735760
  C     14.781090   -1.220770   12.549910
  H     15.296060   -2.131670   12.217680
  H     13.724150   -1.352360   12.285990
  C     14.885370   -1.104900   14.070620
  H     14.482580   -0.140410   14.403670
  H     15.934910   -1.135450   14.381740
  C     14.129910   -2.230510   14.769630
  H     14.524660   -3.208810   14.477080
  H     13.066620   -2.191700   14.515660
  N     14.313870   -2.077250   16.212760
  H     15.252800   -1.873410   16.545830
  C     13.338360   -2.207420   17.146570
  N     13.408130   -2.100820   18.445820
  H     13.026000   -2.117830   19.400880
  H     14.305850   -1.879740   18.897130
  N     12.108980   -2.484350   17.000040
  H     11.708830   -2.653860   16.095400
  H     11.540700   -2.533170   17.831770
  H     15.594330   -0.269710    9.714070
  H     14.991690    0.933100   12.266460
  N     17.573860    0.000910   12.928950
  C     19.033650    0.000060   12.902590
  C     19.492680    0.000940   14.372120
  O     18.705670    0.002120   15.317580
  C     19.559840    1.221770   12.134690
  H     19.406990    2.132770   12.728010
  H     18.976090    1.353230   11.214880
  C     21.035830    1.105750   11.754130
  H     21.224820    0.141170   11.267020
  H     21.662040    1.136420   12.652010
  C     21.461010    2.231190   10.816610
  H     21.307920    3.209580   11.283310
  H     20.884700    2.192260    9.887660
  N     22.888510    2.077820   10.536130
  H     23.500660    1.874080   11.322160
  C     23.467070    2.207760    9.315920
  N     24.722030    2.101050    8.972440
  H     25.507860    2.117910    8.308630
  H     25.433390    1.880040    9.682070
  N     22.940360    2.484540    8.195420
  H     21.955700    2.654080    8.100930
  H     23.550450    2.533200    7.393850
  H     17.125080    0.271100   13.800850
  H     19.357150   -0.932050   12.424280
  N     20.800140    0.000420   14.665650
  C     21.235820    0.001480   16.060420
  C     22.774660    0.000540   16.054660
  O     23.443290   -0.000850   15.021830
  H     20.903090    0.938770   16.523870
  C     20.701200   -1.203570   16.845840
  H     19.618950   -1.302500   16.721730
  H     21.169180   -2.135590   16.507250
  O     20.963930   -1.059770   18.246850
  H     20.401990   -1.716910   18.698190
  H     21.530490   -0.042790   13.959020
  N     23.449010    0.001230   17.212610
  C     24.908390    0.000110   17.207140
  C     25.346440    0.001310   18.681100
  O     24.552300    0.002880   19.620160
  C     25.440850    1.221490   16.444810
  C     26.962570    1.229110   16.273760
  C     27.411210    2.366420   15.351250
  C     28.934740    2.432010   15.253990
  N     29.338670    3.497000   14.345300
  H     25.304800   -0.858050   16.705820
  H     25.129150    2.104410   16.962680
  H     24.966600    1.220800   15.485650
  H     27.272920    0.288350   15.869340
  H     27.410980    1.350160   17.237700
  H     27.028610    3.292190   15.727350
  H     26.983850    2.205770   14.383540
  H     29.306090    1.494890   14.895090
  H     29.338050    2.611740   16.228640
  H     30.355820    3.573030   14.341350
  H     28.981890    4.389280   14.687280
  H     28.947970    3.320640   13.419740
  H     23.112560    0.431180   18.074210
  O     26.676130    0.000540   18.920120

----------------------------
CARTESIAN COORDINATES (A.U.)
----------------------------
  NO LB      ZA    FRAG     MASS         X           Y           Z
   0 N     7.0000    0    14.007    0.000000    0.000000    0.000000
   1 C     6.0000    0    12.011    2.760096    0.000000    0.000000
   2 C     6.0000    0    12.011    3.581163    0.000000    2.801954
   3 O     8.0000    0    15.999    2.052866    0.000000    4.556697
   4 C     6.0000    0    12.011    3.816907    2.261908   -1.477823
   5 H     1.0000    0     1.008    2.367430    3.101985   -2.701345
   6 H     1.0000    0     1.008    4.384750    3.777449   -0.181281
   7 C     6.0000    0    12.011    6.036938    1.483567   -3.153518
   8 H     1.0000    0     1.008    7.455366    0.393517   -2.113092
   9 H     1.0000    0     1.008    5.374249    0.281853   -4.704813
  10 C     6.0000    0    12.011    7.333404    3.778677   -4.197101
  11 O     8.0000    0    15.999    8.385641    5.404749   -2.945516
  12 O     8.0000    0    15.999    7.250463    3.914076   -6.729390
  13 H     1.0000    0     1.008   -0.868688    0.046449    1.715002
  14 H     1.0000    0     1.008    3.365149   -1.799133   -0.833369
  15 H     1.0000    0     1.008   -0.642507    0.158378   -1.810377
  16 H     1.0000    0     1.008   -0.642507    1.789684   -0.315565
  17 N     7.0000    0    14.007    6.041700   -0.000000    3.400298
  18 C     6.0000    0    12.011    6.819795    0.000416    6.055665
  19 C     6.0000    0    12.011    9.732562    0.000302    6.038034
  20 O     8.0000    0    15.999   10.984260   -0.000094    4.078747
  21 C     6.0000    0    12.011    5.797396   -2.316426    7.443329
  22 C     6.0000    0    12.011    5.846454   -1.940768   10.254750
  23 O     8.0000    0    15.999    6.807247   -0.190692   11.410525
  24 O     8.0000    0    15.999    4.747105   -3.870802   11.496716
  25 H     1.0000    0     1.008    6.155103    1.770484    6.904190
  26 H     1.0000    0     1.008    6.906987   -4.003593    6.983502
  27 H     1.0000    0     1.008    3.826488   -2.662549    6.907894
  28 H     1.0000    0     1.008    7.396785   -0.376207    2.088639
  29 N     7.0000    0    14.007   11.011926    0.000605    8.223294
  30 C     6.0000    0    12.011   13.771965    0.000076    8.206589
  31 C     6.0000    0    12.011   14.609983    0.000643   11.003535
  32 O     8.0000    0    15.999   13.092344    0.001380   12.767481
  33 C     6.0000    0    12.011   14.820253    2.261397    6.721813
  34 H     1.0000    0     1.008   13.363557    3.101456    5.506889
  35 H     1.0000    0     1.008   15.396222    3.777185    8.014499
  36 C     6.0000    0    12.011   17.029947    1.482207    5.032927
  37 H     1.0000    0     1.008   18.454442    0.392156    6.065038
  38 H     1.0000    0     1.008   16.357658    0.280209    3.485978
  39 C     6.0000    0    12.011   18.320517    3.776788    3.980916
  40 O     8.0000    0    15.999   19.380634    5.402973    5.225679
  41 O     8.0000    0    15.999   18.222289    3.911563    1.449136
  42 H     1.0000    0     1.008   10.153650    0.047659    9.943531
  43 H     1.0000    0     1.008   14.371613   -1.799378    7.370045
  44 N     7.0000    0    14.007   17.074091    0.000321   11.586969
  45 C     6.0000    0    12.011   17.868249    0.001266   14.237575
  46 C     6.0000    0    12.011   20.780865    0.000567   14.202312
  47 O     8.0000    0    15.999   22.020676   -0.000548   12.235485
  48 C     6.0000    0    12.011   16.853825   -2.315028   15.632004
  49 C     6.0000    0    12.011   16.919965   -1.938651   18.442990
  50 O     8.0000    0    15.999   17.888072   -0.188462   19.592473
  51 O     8.0000    0    15.999   15.827779   -3.868156   19.692080
  52 H     1.0000    0     1.008   17.209037    1.771675   15.089652
  53 H     1.0000    0     1.008   17.960278   -4.002516   15.165903
  54 H     1.0000    0     1.008   14.879647   -2.660904   15.108606
  55 H     1.0000    0     1.008   18.421145   -0.376490   10.267241
  56 N     7.0000    0    14.007   22.073419    0.001209   16.379806
  57 C     6.0000    0    12.011   24.833590    0.000132   16.346396
  58 C     6.0000    0    12.011   25.702052    0.001247   19.126674
  59 O     8.0000    0    15.999   24.220733    0.002740   20.918456
  60 C     6.0000    0    12.011   25.877985    2.229896   14.772537
  61 C     6.0000    0    12.011   25.351810    4.810336   15.974705
  62 C     6.0000    0    12.011   28.699913    1.957889   14.203843
  63 H     1.0000    0     1.008   25.431141   -1.792764   15.491805
  64 H     1.0000    0     1.008   21.217448    0.693170   17.953627
  65 H     1.0000    0     1.008   24.905702    2.212265   12.937424
  66 H     1.0000    0     1.008   23.330993    5.077089   16.324928
  67 H     1.0000    0     1.008   25.971508    6.334041   14.717735
  68 H     1.0000    0     1.008   26.354933    5.036517   17.770739
  69 H     1.0000    0     1.008   29.297275    3.382648   12.825590
  70 H     1.0000    0     1.008   29.118866    0.097718   13.401579
  71 H     1.0000    0     1.008   29.859109    2.217329   15.896660
  72 N     7.0000    0    14.007   28.172774    0.000586   19.681347
  73 C     6.0000    0    12.011   28.995410    0.002041   22.314926
  74 C     6.0000    0    12.011   31.904284    0.000794   22.262410
  75 O     8.0000    0    15.999   33.130811   -0.001077   20.287646
  76 C     6.0000    0    12.011   27.932212   -2.306921   23.715893
  77 H     1.0000    0     1.008   28.905364   -4.028273   23.088069
  78 H     1.0000    0     1.008   25.934885   -2.555590   23.217156
  79 C     6.0000    0    12.011   28.129273   -2.087958   26.589618
  80 H     1.0000    0     1.008   27.368110   -0.265336   27.218992
  81 H     1.0000    0     1.008   30.112616   -2.145690   27.177550
  82 C     6.0000    0    12.011   26.701660   -4.215053   27.910556
  83 H     1.0000    0     1.008   27.447630   -6.063772   27.357716
  84 H     1.0000    0     1.008   24.692333   -4.141713   27.430622
  85 N     7.0000    0    14.007   27.049294   -3.925434   30.637676
  86 H     1.0000    0     1.008   28.823615   -3.540232   31.267087
  87 C     6.0000    0    12.011   25.205847   -4.171419   32.402321
  88 N     7.0000    0    14.007   25.337694   -3.969974   34.857548
  89 H     1.0000    0     1.008   24.615573   -4.002119   36.662350
  90 H     1.0000    0     1.008   27.034139   -3.552194   35.710400
  91 N     7.0000    0    14.007   22.882656   -4.694741   32.125420
  92 H     1.0000    0     1.008   22.126482   -5.015069   30.415898
  93 H     1.0000    0     1.008   21.808762   -4.786998   33.697162
  94 H     1.0000    0     1.008   29.469013   -0.509678   18.356932
  95 H     1.0000    0     1.008   28.330188    1.763303   23.180250
  96 N     7.0000    0    14.007   33.209783    0.001720   24.432175
  97 C     6.0000    0    12.011   35.968386    0.000113   24.382362
  98 C     6.0000    0    12.011   36.835827    0.001776   27.159371
  99 O     8.0000    0    15.999   35.348593    0.004006   28.946031
 100 C     6.0000    0    12.011   36.962741    2.308811   22.931241
 101 H     1.0000    0     1.008   36.673896    4.030351   24.052453
 102 H     1.0000    0     1.008   35.859613    2.557234   21.193052
 103 C     6.0000    0    12.011   39.751958    2.089565   22.212087
 104 H     1.0000    0     1.008   40.109097    0.266773   21.291582
 105 H     1.0000    0     1.008   40.935323    2.147523   23.908834
 106 C     6.0000    0    12.011   40.555431    4.216338   20.440431
 107 H     1.0000    0     1.008   40.266133    6.065227   21.322366
 108 H     1.0000    0     1.008   39.466363    4.142771   18.684970
 109 N     7.0000    0    14.007   43.253016    3.926511   19.910400
 110 H     1.0000    0     1.008   44.409811    3.541498   21.395782
 111 C     6.0000    0    12.011   44.346335    4.172062   17.604537
 112 N     7.0000    0    14.007   46.717866    3.970409   16.955454
 113 H     1.0000    0     1.008   48.202870    4.002270   15.701035
 114 H     1.0000    0     1.008   48.062142    3.552761   18.296461
 115 N     7.0000    0    14.007   43.350998    4.695100   15.487099
 116 H     1.0000    0     1.008   41.490260    5.015484   15.308539
 117 H     1.0000    0     1.008   44.503901    4.787054   13.972352
 118 H     1.0000    0     1.008   32.361711    0.512305   26.079827
 119 H     1.0000    0     1.008   36.579712   -1.761319   23.478487
 120 N     7.0000    0    14.007   39.306568    0.000794   27.714062
 121 C     6.0000    0    12.011   40.129884    0.002797   30.349795
 122 C     6.0000    0    12.011   43.037870    0.001020   30.338911
 123 O     8.0000    0    15.999   44.301398   -0.001606   28.387145
 124 H     1.0000    0     1.008   39.501115    1.774018   31.225589
 125 C     6.0000    0    12.011   39.119599   -2.274418   31.834024
 126 H     1.0000    0     1.008   37.074443   -2.461368   31.599490
 127 H     1.0000    0     1.008   40.003953   -4.035680   31.194182
 128 O     8.0000    0    15.999   39.616086   -2.002675   34.481549
 129 H     1.0000    0     1.008   38.554174   -3.244490   35.334458
 130 H     1.0000    0     1.008   40.686730   -0.080861   26.378725
 131 N     7.0000    0    14.007   44.312207    0.002324   32.527119
 132 C     6.0000    0    12.011   47.070036    0.000208   32.516782
 133 C     6.0000    0    12.011   47.897830    0.002476   35.302163
 134 O     8.0000    0    15.999   46.397123    0.005442   37.076729
 135 C     6.0000    0    12.011   48.076239    2.308282   31.076187
 136 C     6.0000    0    12.011   50.951873    2.322681   30.752950
 137 C     6.0000    0    12.011   51.799680    4.471886   29.009658
 138 C     6.0000    0    12.011   54.678734    4.595833   28.825864
 139 N     7.0000    0    14.007   55.442051    6.608372   27.108688
 140 H     1.0000    0     1.008   47.819142   -1.621480   31.569425
 141 H     1.0000    0     1.008   47.487211    3.976759   32.054820
 142 H     1.0000    0     1.008   47.180036    2.306978   29.263638
 143 H     1.0000    0     1.008   51.538350    0.544903   29.988707
 144 H     1.0000    0     1.008   51.799245    2.551433   32.574532
 145 H     1.0000    0     1.008   51.076671    6.221337   29.720384
 146 H     1.0000    0     1.008   50.992087    4.168301   27.180951
 147 H     1.0000    0     1.008   55.380484    2.824933   28.147641
 148 H     1.0000    0     1.008   55.440880    4.935473   30.667685
 149 H     1.0000    0     1.008   57.364186    6.752048   27.101224
 150 H     1.0000    0     1.008   54.767835    8.294537   27.754937
 151 H     1.0000    0     1.008   54.703735    6.275100   25.359633
 152 H     1.0000    0     1.008   43.676409    0.814812   34.155307
 153 O     8.0000    0    15.999   50.410580    0.001020   35.753845

--------------------------------
INTERNAL COORDINATES (ANGSTROEM)
--------------------------------
 N      0   0   0     0.000000000000     0.00000000     0.00000000
 C      1   0   0     1.460580000000     0.00000000     0.00000000
 C      2   1   0     1.545079225477   106.33236775     0.00000000
 O      3   2   1     1.231382407094   122.61332781     0.00000000
 C      2   1   3     1.535255549086   111.36236206   236.84131569
 H      5   2   1     1.097799697121   111.20000897   343.02153046
 H      5   2   1     1.097367490953   110.55189133    99.63496243
 C      5   2   1     1.528425499035   111.43291771   222.85289788
 H      8   5   2     1.095107544399   112.15354997   310.06193337
 H      8   5   2     1.096021868806   110.17965765    68.97698505
 C      8   5   2     1.500235372067   110.29761484   190.47821244
 O     11   8   5     1.220298684298   125.43139618    62.29609609
 O     11   8   5     1.342661705531   113.30547101   242.15914861
 H      1   2   3     1.017618751842   116.85480148     1.55143140
 H      2   1   3     1.097002495895   106.96982773   114.85385996
 H      1   2   3     1.020003566758   109.47114980   175.00029763
 H      1   2   3     1.020004070433   109.47113980    99.99986914
 N      3   2   1     1.340005522563   120.00004799   180.00000000
 C     18   3   2     1.464244766595   119.99969582   179.99005970
 C     19  18   3     1.541398238419   105.98520504   180.00018406
 O     20  19  18     1.230328832914   122.91943934     0.00000000
 C     19  18   3     1.528091739294   111.19074894    59.38502523
 C     22  19  18     1.501186761632   111.33836815   198.32926758
 O     23  22  19     1.220749387467   127.17029298   352.12362313
 O     23  22  19     1.346657402534   112.07158560   174.51856857
 H     19  18   3     1.096681088740   107.62896052   296.34925090
 H     22  19  18     1.095941510255   110.92986521    77.28625570
 H     22  19  18     1.096172752261   110.28660869   317.13027642
 H     18   3   2     1.017649931361   121.56900084   346.72608796
 N     20  19  18     1.339992685726   120.00008305   180.00040640
 C     30  20  19     1.460576778708   120.00011233   179.98989218
 C     31  30  20     1.545086945126   106.33242957   179.99943004
 O     32  31  30     1.231373215439   122.61320782     0.00000000
 C     31  30  20     1.535256612622   111.36258142    56.84077458
 H     34  31  30     1.097797250042   111.19997501   343.02235317
 H     34  31  30     1.097374832088   110.55228030    99.63466830
 C     34  31  30     1.528417720945   111.43312093   222.85278870
 H     37  34  31     1.095109142460   112.15351260   310.06172385
 H     37  34  31     1.096025800153   110.17970689    68.97669402
 C     37  34  31     1.500233552218   110.29797533   190.47805703
 O     40  37  34     1.220296915386   125.43143888    62.29660285
 O     40  37  34     1.342663517193   113.30600704   242.15934319
 H     30  20  19     1.017626541763   123.12617137   358.33671733
 H     31  30  20     1.096995687184   106.96971822   294.85328691
 N     32  31  30     1.340002245894   119.99998488   179.99988948
 C     45  32  31     1.464243587010   119.99970086   179.99025420
 C     46  45  32     1.541402996169   105.98529260   179.99977776
 O     47  46  45     1.230327580159   122.91937675     0.00000000
 C     46  45  32     1.528095356645   111.19078357    59.38498860
 C     49  46  45     1.501192755445   111.33836128   198.32954053
 O     50  49  46     1.220749029899   127.17018901   352.12345571
 O     50  49  46     1.346658324966   112.07141711   174.51840844
 H     46  45  32     1.096679905533   107.62887234   296.34950233
 H     49  46  45     1.095934059604   110.92986971    77.28619161
 H     49  46  45     1.096170405503   110.28664017   317.13016122
 H     45  32  31     1.017648085440   121.56942305   346.72590641
 N     47  46  45     1.339996878392   119.99960521   179.99956475
 C     57  47  46     1.460727110620   119.99973249   179.99006443
 C     58  57  47     1.541366575672   106.65346153   180.00011529
 O     59  58  57     1.230241775994   123.07149408     0.00000000
 C     58  57  47     1.546396344732   111.32064555    55.03806321
 C     61  58  57     1.531941885092   113.04916065    67.39613096
 C     61  58  57     1.530107348260   112.51604399   192.83208320
 H     58  57  47     1.097563790675   107.06191470   295.32733380
 H     57  47  46     1.016296728028   118.50701403   335.82757659
 H     61  58  57     1.099019016669   107.58352545   309.70092392
 H     62  61  58     1.094452169535   111.27688741   304.37016469
 H     62  61  58     1.095496109806   110.45760099   185.07498590
 H     62  61  58     1.095173210684   111.69681027    65.42920752
 H     63  61  58     1.095583392627   110.35182800   170.23799623
 H     63  61  58     1.094691605522   111.00914905    51.04597079
 H     63  61  58     1.094344680848   111.97826273   289.65422326
 N     59  58  57     1.339992393784   119.99997058   179.99995426
 C     73  59  58     1.460037216033   119.99992425   179.99043294
 C     74  73  59     1.539560975019   106.31263448   180.00029033
 O     75  74  73     1.230159291555   122.87872321     0.00000000
 C     74  73  59     1.535927516682   110.55393528    58.22401613
 H     77  74  73     1.097865968049   110.00794767    72.15903796
 H     77  74  73     1.097311194739   109.39848231   315.82506298
 C     77  74  73     1.528678867323   113.25831143   194.91071971
 H     80  77  74     1.096997286551   110.09718396    50.04560132
 H     80  77  74     1.095108747340   110.23560756   292.38778080
 C     80  77  74     1.525232003270   111.48038097   171.32039513
 H     83  80  77     1.094752919612   111.00313835    59.55263257
 H     83  80  77     1.093888751702   110.41799329   298.96516279
 N     83  80  77     1.462858197537   108.21069954   178.10915004
 H     86  83  80     1.016895233247   117.40209859   315.25610729
 C     86  83  80     1.356674281138   125.34867280   136.45575521
 N     88  86  83     1.305481510938   129.69937270   179.37119622
 H     89  88  86     1.028811100543   154.51293103   181.01091965
 H     89  88  86     1.028814016672   120.05009569     0.49984618
 N     88  86  83     1.268675076684   129.65915301     0.44020496
 H     92  88  86     1.003607090549   121.82587146     0.41069110
 H     92  88  86     1.008513928362   117.47384685   180.15379942
 H     73  59  58     1.017160364200   120.47292661   342.10385408
 H     74  73  59     1.096476597516   107.65897706   296.92427159
 N     75  74  73     1.340000157388   120.00007769   180.00029895
 C     97  75  74     1.460028224453   119.99985099   179.98984558
 C     98  97  75     1.539554395337   106.31246153   179.99956527
 O     99  98  97     1.230154764288   122.87870486     0.00000000
 C     98  97  75     1.535943244459   110.55410182    58.22355211
 H    101  98  97     1.097867362162   110.00736510    72.15865482
 H    101  98  97     1.097313186925   109.39771974   315.82488982
 C    101  98  97     1.528670348407   113.25800036   194.91086444
 H    104 101  98     1.096999520784   110.09753178    50.04568811
 H    104 101  98     1.095111002319   110.23548676   292.38710180
 C    104 101  98     1.525233417022   111.48003132   171.32060434
 H    107 104 101     1.094756790433   111.00365764    59.55225342
 H    107 104 101     1.093890699979   110.41792708   298.96462989
 N    107 104 101     1.462855986521   108.21110081   178.10872057
 H    110 107 104     1.016897620707   117.40192816   315.25578244
 C    110 107 104     1.356660798173   125.34933109   136.45539698
 N    112 110 107     1.305484636486   129.69999658   179.37100580
 H    113 112 110     1.028813279755   154.51281656   181.00990096
 H    113 112 110     1.028811550577   120.05024562     0.50101633
 N    112 110 107     1.268680748849   129.65887125     0.44072673
 H    116 112 110     1.003607237569   121.82548928     0.41018190
 H    116 112 110     1.008509825733   117.47425901   180.15376983
 H     97  75  74     1.017160623746   120.47227449   342.10250011
 H     98  97  75     1.096476975682   107.65942819   296.92404511
 N     99  98  97     1.340004396597   120.00029561   179.99975786
 C    121  99  98     1.461232883185   120.00037896   179.98982317
 C    122 121  99     1.538851067128   107.13258134   180.00023432
 O    123 122 121     1.230368163559   123.13255399     0.00000000
 H    122 121  99     1.097272846424   108.26196815   295.98802883
 C    122 121  99     1.534551603336   112.58782084    58.35086316
 H    126 122 121     1.093826082839   110.95603369   308.84054159
 H    126 122 121     1.096498859507   111.14603067    69.13715360
 O    126 122 121     1.432666923259   110.96544359   189.33748366
 H    129 126 122     0.975354980917   106.21477171   165.15600875
 H    121  99  98     1.017154945670   123.25952273   357.15320214
 N    123 122 121     1.339998731753   120.00054781   180.00000759
 C    132 123 122     1.459390680969   120.00024740   179.98963984
 C    133 132 123     1.537675948989   106.33676052   179.99997085
 O    134 133 132     1.229835146717   123.22808524     0.00000000
 C    133 132 123     1.535066703730   110.37191750    58.16515591
 C    136 133 132     1.531322280025   113.83601878   185.56109698
 C    137 136 133     1.531592826374   111.22687316   172.43847670
 C    138 137 136     1.528039664603   111.23974820   176.23018260
 N    139 138 137     1.457079497179   110.33259186   178.51593049
 H    133 132 123     1.070000568271   111.89120299   300.28677045
 H    136 133 132     1.069997174436   108.36935359    63.03246505
 H    136 133 132     1.070000674860   106.91274838   307.10883050
 H    137 136 133     1.070000951635   109.03049618    51.09941782
 H    137 136 133     1.070002315044   108.44416104   293.05889225
 H    138 137 136     1.069992552731   109.02747664    54.77119547
 H    138 137 136     1.070003568312   108.43662017   297.70442062
 H    139 138 137     1.070001834998   109.25585906    58.01236519
 H    139 138 137     1.070002080138   108.96824627   299.29166826
 H    140 139 138     1.019995238175   109.47176032   175.98139996
 H    140 139 138     1.020002885878   109.47093011    59.52511538
 H    140 139 138     1.020005222143   109.47123959   300.40216507
 H    132 123 122     1.020004982831   124.34420406   329.38241731
 O    134 133 132     1.351002090820   116.74195938   179.99983133

---------------------------
INTERNAL COORDINATES (A.U.)
---------------------------
 N      0   0   0     0.000000000000     0.00000000     0.00000000
 C      1   0   0     2.760096196683     0.00000000     0.00000000
 C      2   1   0     2.919776591362   106.33236775     0.00000000
 O      3   2   1     2.326975515536   122.61332781     0.00000000
 C      2   1   3     2.901212533356   111.36236206   236.84131569
 H      5   2   1     2.074540777461   111.20000897   343.02153046
 H      5   2   1     2.073724026169   110.55189133    99.63496243
 C      5   2   1     2.888305609278   111.43291771   222.85289788
 H      8   5   2     2.069453346105   112.15354997   310.06193337
 H      8   5   2     2.071181168831   110.17965765    68.97698505
 C      8   5   2     2.835033989627   110.29761484   190.47821244
 O     11   8   5     2.306030314908   125.43139618    62.29609609
 O     11   8   5     2.537262913958   113.30547101   242.15914861
 H      1   2   3     1.923020749724   116.85480148     1.55143140
 H      2   1   3     2.073034285470   106.96982773   114.85385996
 H      1   2   3     1.927527396796   109.47114980   175.00029763
 H      1   2   3     1.927528348603   109.47113980    99.99986914
 N      3   2   1     2.532243455587   120.00004799   180.00000000
 C     18   3   2     2.767021601891   119.99969582   179.99005970
 C     19  18   3     2.912820533920   105.98520504   180.00018406
 O     20  19  18     2.324984548875   122.91943934     0.00000000
 C     19  18   3     2.887674894774   111.19074894    59.38502523
 C     22  19  18     2.836831855353   111.33836815   198.32926758
 O     23  22  19     2.306882020464   127.17029298   352.12362313
 O     23  22  19     2.544813687007   112.07158560   174.51856857
 H     19  18   3     2.072426913969   107.62896052   296.34925090
 H     22  19  18     2.071029313178   110.92986521    77.28625570
 H     22  19  18     2.071466297240   110.28660869   317.13027642
 H     18   3   2     1.923079670477   121.56900084   346.72608796
 N     20  19  18     2.532219197480   120.00008305   180.00040640
 C     30  20  19     2.760090109322   120.00011233   179.98989218
 C     31  30  20     2.919791179386   106.33242957   179.99943004
 O     32  31  30     2.326958145825   122.61320782     0.00000000
 C     31  30  20     2.901214543147   111.36258142    56.84077458
 H     34  31  30     2.074536153151   111.19997501   343.02235317
 H     34  31  30     2.073737898904   110.55228030    99.63466830
 C     34  31  30     2.888290910819   111.43312093   222.85278870
 H     37  34  31     2.069456366003   112.15351260   310.06172385
 H     37  34  31     2.071188598000   110.17970689    68.97669402
 C     37  34  31     2.835030550611   110.29797533   190.47805703
 O     40  37  34     2.306026972148   125.43143888    62.29660285
 O     40  37  34     2.537266337501   113.30600704   242.15934319
 H     30  20  19     1.923035470541   123.12617137   358.33671733
 H     31  30  20     2.073021418870   106.96971822   294.85328691
 N     32  31  30     2.532237263578   119.99998488   179.99988948
 C     45  32  31     2.767019372799   119.99970086   179.99025420
 C     46  45  32     2.912829524766   105.98529260   179.99977776
 O     47  46  45     2.324982181511   122.91937675     0.00000000
 C     46  45  32     2.887681730576   111.19078357    59.38498860
 C     49  46  45     2.836843182017   111.33836128   198.32954053
 O     50  49  46     2.306881344760   127.17018901   352.12345571
 O     50  49  46     2.544815430151   112.07141711   174.51840844
 H     46  45  32     2.072424678032   107.62887234   296.34950233
 H     49  46  45     2.071015233488   110.92986971    77.28619161
 H     49  46  45     2.071461862510   110.28664017   317.13016122
 H     45  32  31     1.923076182191   121.56942305   346.72590641
 N     47  46  45     2.532227120470   119.99960521   179.99956475
 C     57  47  46     2.760374195466   119.99973249   179.99006443
 C     58  57  47     2.912760700001   106.65346153   180.00011529
 O     59  58  57     2.324820035137   123.07149408     0.00000000
 C     58  57  47     2.922265586040   111.32064555    55.03806321
 C     61  58  57     2.894950615907   113.04916065    67.39613096
 C     61  58  57     2.891483843712   112.51604399   192.83208320
 H     58  57  47     2.074094978883   107.06191470   295.32733380
 H     57  47  46     1.920522486773   118.50701403   335.82757659
 H     61  58  57     2.076844957476   107.58352545   309.70092392
 H     62  61  58     2.068214867097   111.27688741   304.37016469
 H     62  61  58     2.070187628309   110.45760099   185.07498590
 H     62  61  58     2.069577437400   111.69681027    65.42920752
 H     63  61  58     2.070352568937   110.35182800   170.23799623
 H     63  61  58     2.068667335539   111.00914905    51.04597079
 H     63  61  58     2.068011742916   111.97826273   289.65422326
 N     59  58  57     2.532218645790   119.99997058   179.99995426
 C     73  59  58     2.759070483634   119.99992425   179.99043294
 C     74  73  59     2.909348609258   106.31263448   180.00029033
 O     75  74  73     2.324664162138   122.87872321     0.00000000
 C     74  73  59     2.902482368082   110.55393528    58.22401613
 H     77  74  73     2.074666011365   110.00794767    72.15903796
 H     77  74  73     2.073617641743   109.39848231   315.82506298
 C     77  74  73     2.888784405953   113.25831143   194.91071971
 H     80  77  74     2.073024441236   110.09718396    50.04560132
 H     80  77  74     2.069455619334   110.23560756   292.38778080
 C     80  77  74     2.882270776873   111.48038097   171.32039513
 H     83  80  77     2.068783202378   111.00313835    59.55263257
 H     83  80  77     2.067150161694   110.41799329   298.96516279
 N     83  80  77     2.764401366106   108.21069954   178.10915004
 H     86  83  80     1.921653497726   117.40209859   315.25610729
 C     86  83  80     2.563742844284   125.34867280   136.45575521
 N     88  86  83     2.467002528570   129.69937270   179.37119622
 H     89  88  86     1.944171223564   154.51293103   181.01091965
 H     89  88  86     1.944176734249   120.05009569     0.49984618
 N     88  86  83     2.397448447865   129.65915301     0.44020496
 H     92  88  86     1.896542547199   121.82587146     0.41069110
 H     92  88  86     1.905815126849   117.47384685   180.15379942
 H     73  59  58     1.922154522618   120.47292661   342.10385408
 H     74  73  59     2.072040481559   107.65897706   296.92427159
 N     75  74  73     2.532233316875   120.00007769   180.00029895
 C     97  75  74     2.759053492012   119.99985099   179.98984558
 C     98  97  75     2.909336175461   106.31246153   179.99956527
 O     99  98  97     2.324655606842   122.87870486     0.00000000
 C     98  97  75     2.902512089274   110.55410182    58.22355211
 H    101  98  97     2.074668645856   110.00736510    72.15865482
 H    101  98  97     2.073621406429   109.39771974   315.82488982
 C    101  98  97     2.888768307536   113.25800036   194.91086444
 H    104 101  98     2.073028663324   110.09753178    50.04568811
 H    104 101  98     2.069459880627   110.23548676   292.38710180
 C    104 101  98     2.882273448476   111.48003132   171.32060434
 H    107 104 101     2.068790517170   111.00365764    59.55225342
 H    107 104 101     2.067153843403   110.41792708   298.96462989
 N    107 104 101     2.764397187892   108.21110081   178.10872057
 H    110 107 104     1.921658009373   117.40192816   315.25578244
 C    110 107 104     2.563717365174   125.34933109   136.45539698
 N    112 110 107     2.467008435000   129.69999658   179.37100580
 H    113 112 110     1.944175341678   154.51281656   181.00990096
 H    113 112 110     1.944172074005   120.05024562     0.50101633
 N    112 110 107     2.397459166703   129.65887125     0.44072673
 H    116 112 110     1.896542825026   121.82548928     0.41018190
 H    116 112 110     1.905807374004   117.47425901   180.15376983
 H     97  75  74     1.922155013089   120.47227449   342.10250011
 H     98  97  75     2.072041196189   107.65942819   296.92404511
 N     99  98  97     2.532241327819   120.00029561   179.99975786
 C    121  99  98     2.761329967099   120.00037896   179.98982317
 C    122 121  99     2.908007077764   107.13258134   180.00023432
 O    123 122 121     2.325058873022   123.13255399     0.00000000
 H    122 121  99     2.073545173930   108.26196815   295.98802883
 C    122 121  99     2.899882268674   112.58782084    58.35086316
 H    126 122 121     2.067031734707   110.95603369   308.84054159
 H    126 122 121     2.072082550625   111.14603067    69.13715360
 O    126 122 121     2.707348126087   110.96544359   189.33748366
 H    129 126 122     1.843153797290   106.21477171   165.15600875
 H    121  99  98     1.922144283079   123.25952273   357.15320214
 N    123 122 121     2.532230622815   120.00054781   180.00000759
 C    132 123 122     2.757848709429   120.00024740   179.98963984
 C    133 132 123     2.905786426307   106.33676052   179.99997085
 O    134 133 132     2.324051617166   123.22808524     0.00000000
 C    133 132 123     2.900855667351   110.37191750    58.16515591
 C    136 133 132     2.893779732019   113.83601878   185.56109698
 C    137 136 133     2.894290990525   111.22687316   172.43847670
 C    138 137 136     2.887576487869   111.23974820   176.23018260
 N    139 138 137     2.753481205020   110.33259186   178.51593049
 H    133 132 123     2.022008037172   111.89120299   300.28677045
 H    136 133 132     2.022001623753   108.36935359    63.03246505
 H    136 133 132     2.022008238596   106.91274838   307.10883050
 H    137 136 133     2.022008761625   109.03049618    51.09941782
 H    137 136 133     2.022011338095   108.44416104   293.05889225
 H    138 137 136     2.021992889997   109.02747664    54.77119547
 H    138 137 136     2.022013706428   108.43662017   297.70442062
 H    139 138 137     2.022010430940   109.25585906    58.01236519
 H    139 138 137     2.022010894187   108.96824627   299.29166826
 H    140 139 138     1.927511658055   109.47176032   175.98139996
 H    140 139 138     1.927526110119   109.47093011    59.52511538
 H    140 139 138     1.927530525021   109.47123959   300.40216507
 H    132 123 122     1.927530072786   124.34420406   329.38241731
 O    134 133 132     2.553023958005   116.74195938   179.99983133

---------------------
BASIS SET INFORMATION
---------------------
There are 4 groups of distinct atoms

 Group   1 Type N   : 6s3p contracted to 2s1p pattern {33/3}
 Group   2 Type C   : 6s3p contracted to 2s1p pattern {33/3}
 Group   3 Type O   : 6s3p contracted to 2s1p pattern {33/3}
 Group   4 Type H   : 3s contracted to 1s pattern {3}

Atom   0N    basis set group =>   1
Atom   1C    basis set group =>   2
Atom   2C    basis set group =>   2
Atom   3O    basis set group =>   3
Atom   4C    basis set group =>   2
Atom   5H    basis set group =>   4
Atom   6H    basis set group =>   4
Atom   7C    basis set group =>   2
Atom   8H    basis set group =>   4
Atom   9H    basis set group =>   4
Atom  10C    basis set group =>   2
Atom  11O    basis set group =>   3
Atom  12O    basis set group =>   3
Atom  13H    basis set group =>   4
Atom  14H    basis set group =>   4
Atom  15H    basis set group =>   4
Atom  16H    basis set group =>   4
Atom  17N    basis set group =>   1
Atom  18C    basis set group =>   2
Atom  19C    basis set group =>   2
Atom  20O    basis set group =>   3
Atom  21C    basis set group =>   2
Atom  22C    basis set group =>   2
Atom  23O    basis set group =>   3
Atom  24O    basis set group =>   3
Atom  25H    basis set group =>   4
Atom  26H    basis set group =>   4
Atom  27H    basis set group =>   4
Atom  28H    basis set group =>   4
Atom  29N    basis set group =>   1
Atom  30C    basis set group =>   2
Atom  31C    basis set group =>   2
Atom  32O    basis set group =>   3
Atom  33C    basis set group =>   2
Atom  34H    basis set group =>   4
Atom  35H    basis set group =>   4
Atom  36C    basis set group =>   2
Atom  37H    basis set group =>   4
Atom  38H    basis set group =>   4
Atom  39C    basis set group =>   2
Atom  40O    basis set group =>   3
Atom  41O    basis set group =>   3
Atom  42H    basis set group =>   4
Atom  43H    basis set group =>   4
Atom  44N    basis set group =>   1
Atom  45C    basis set group =>   2
Atom  46C    basis set group =>   2
Atom  47O    basis set group =>   3
Atom  48C    basis set group =>   2
Atom  49C    basis set group =>   2
Atom  50O    basis set group =>   3
Atom  51O    basis set group =>   3
Atom  52H    basis set group =>   4
Atom  53H    basis set group =>   4
Atom  54H    basis set group =>   4
Atom  55H    basis set group =>   4
Atom  56N    basis set group =>   1
Atom  57C    basis set group =>   2
Atom  58C    basis set group =>   2
Atom  59O    basis set group =>   3
Atom  60C    basis set group =>   2
Atom  61C    basis set group =>   2
Atom  62C    basis set group =>   2
Atom  63H    basis set group =>   4
Atom  64H    basis set group =>   4
Atom  65H    basis set group =>   4
Atom  66H    basis set group =>   4
Atom  67H    basis set group =>   4
Atom  68H    basis set group =>   4
Atom  69H    basis set group =>   4
Atom  70H    basis set group =>   4
Atom  71H    basis set group =>   4
Atom  72N    basis set group =>   1
Atom  73C    basis set group =>   2
Atom  74C    basis set group =>   2
Atom  75O    basis set group =>   3
Atom  76C    basis set group =>   2
Atom  77H    basis set group =>   4
Atom  78H    basis set group =>   4
Atom  79C    basis set group =>   2
Atom  80H    basis set group =>   4
Atom  81H    basis set group =>   4
Atom  82C    basis set group =>   2
Atom  83H    basis set group =>   4
Atom  84H    basis set group =>   4
Atom  85N    basis set group =>   1
Atom  86H    basis set group =>   4
Atom  87C    basis set group =>   2
Atom  88N    basis set group =>   1
Atom  89H    basis set group =>   4
Atom  90H    basis set group =>   4
Atom  91N    basis set group =>   1
Atom  92H    basis set group =>   4
Atom  93H    basis set group =>   4
Atom  94H    basis set group =>   4
Atom  95H    basis set group =>   4
Atom  96N    basis set group =>   1
Atom  97C    basis set group =>   2
Atom  98C    basis set group =>   2
Atom  99O    basis set group =>   3
Atom 100C    basis set group =>   2
Atom 101H    basis set group =>   4
Atom 102H    basis set group =>   4
Atom 103C    basis set group =>   2
Atom 104H    basis set group =>   4
Atom 105H    basis set group =>   4
Atom 106C    basis set group =>   2
Atom 107H    basis set group =>   4
Atom 108H    basis set group =>   4
Atom 109N    basis set group =>   1
Atom 110H    basis set group =>   4
Atom 111C    basis set group =>   2
Atom 112N    basis set group =>   1
Atom 113H    basis set group =>   4
Atom 114H    basis set group =>   4
Atom 115N    basis set group =>   1
Atom 116H    basis set group =>   4
Atom 117H    basis set group =>   4
Atom 118H    basis set group =>   4
Atom 119H    basis set group =>   4
Atom 120N    basis set group =>   1
Atom 121C    basis set group =>   2
Atom 122C    basis set group =>   2
Atom 123O    basis set group =>   3
Atom 124H    basis set group =>   4
Atom 125C    basis set group =>   2
Atom 126H    basis set group =>   4
Atom 127H    basis set group =>   4
Atom 128O    basis set group =>   3
Atom 129H    basis set group =>   4
Atom 130H    basis set group =>   4
Atom 131N    basis set group =>   1
Atom 132C    basis set group =>   2
Atom 133C    basis set group =>   2
Atom 134O    basis set group =>   3
Atom 135C    basis set group =>   2
Atom 136C    basis set group =>   2
Atom 137C    basis set group =>   2
Atom 138C    basis set group =>   2
Atom 139N    basis set group =>   1
Atom 140H    basis set group =>   4
Atom 141H    basis set group =>   4
Atom 142H    basis set group =>   4
Atom 143H    basis set group =>   4
Atom 144H    basis set group =>   4
Atom 145H    basis set group =>   4
Atom 146H    basis set group =>   4
Atom 147H    basis set group =>   4
Atom 148H    basis set group =>   4
Atom 149H    basis set group =>   4
Atom 150H    basis set group =>   4
Atom 151H    basis set group =>   4
Atom 152H    basis set group =>   4
Atom 153O    basis set group =>   3
--------------------------------------------------------------------------
WARNING: No preset parameters were found for the device that Open MPI
detected:

  Local host:            c0702a-s28
  Device name:           mlx5_0
  Device vendor ID:      0x02c9
  Device vendor part ID: 4123

Default device parameters will be used, which may result in lower
performance.  You can edit any of the files specified by the
btl_openib_device_param_files MCA parameter to set values for your
device.

NOTE: You can turn off this warning by setting the MCA parameter
      btl_openib_warn_no_device_params_found to 0.
--------------------------------------------------------------------------
--------------------------------------------------------------------------
WARNING: There was an error initializing an OpenFabrics device.

  Local host:   c0702a-s28
  Local device: mlx5_0
--------------------------------------------------------------------------


           ************************************************************
           *        Program running with 15 parallel MPI-processes    *
           *              working on a common directory               *
           ************************************************************
------------------------------------------------------------------------------
                           ORCA GTO INTEGRAL CALCULATION
------------------------------------------------------------------------------

                         BASIS SET STATISTICS AND STARTUP INFO

 # of primitive gaussian shells          ...  936
 # of primitive gaussian functions       ... 1410
 # of contracted shells                  ...  312
 # of contracted basis functions         ...  470
 Highest angular momentum                ...    1
 Maximum contraction depth               ...    3
 Integral package used                   ... LIBINT
 Integral threshhold            Thresh   ...  1.000e-10
 Primitive cut-off              TCut     ...  1.000e-11


------------------------------ INTEGRAL EVALUATION ----------------------------


 * One electron integrals 
 Pre-screening matrix                    ... done
 Shell pair data                         ... done (   0.009 sec)

[c0702a-s28.ufhpc:03326] 14 more processes have sent help message help-mpi-btl-openib.txt / no device params found
[c0702a-s28.ufhpc:03326] Set MCA parameter "orte_base_help_aggregate" to 0 to see all help / error messages
[c0702a-s28.ufhpc:03326] 14 more processes have sent help message help-mpi-btl-openib.txt / error in device init
--------------------------------------------------------------------------
WARNING: No preset parameters were found for the device that Open MPI
detected:

  Local host:            c0702a-s28
  Device name:           mlx5_0
  Device vendor ID:      0x02c9
  Device vendor part ID: 4123

Default device parameters will be used, which may result in lower
performance.  You can edit any of the files specified by the
btl_openib_device_param_files MCA parameter to set values for your
device.

NOTE: You can turn off this warning by setting the MCA parameter
      btl_openib_warn_no_device_params_found to 0.
--------------------------------------------------------------------------
--------------------------------------------------------------------------
WARNING: There was an error initializing an OpenFabrics device.

  Local host:   c0702a-s28
  Local device: mlx5_0
--------------------------------------------------------------------------


           ************************************************************
           *        Program running with 15 parallel MPI-processes    *
           *              working on a common directory               *
           ************************************************************
-------------------------------------------------------------------------------
                                 ORCA SCF
-------------------------------------------------------------------------------

------------
SCF SETTINGS
------------
Hamiltonian:
 Ab initio Hamiltonian  Method          .... Hartree-Fock(GTOs)


General Settings:
 Integral files         IntName         .... EDEDVRRSK
 Hartree-Fock type      HFTyp           .... UHF
 Total Charge           Charge          ....    0
 Multiplicity           Mult            ....    2
 Number of Electrons    NEL             ....  603
 Basis Dimension        Dim             ....  470
 Nuclear Repulsion      ENuc            ....  12441.3214365035 Eh

Convergence Acceleration:
 DIIS                   CNVDIIS         .... off
 Newton-Raphson         CNVNR           .... off
 SOSCF                  CNVSOSCF        .... off
 Level Shifting         CNVShift        .... off
 Zerner damping         CNVZerner       .... off
 Static damping         CNVDamp         .... off
 Fernandez-Rico         CNVRico         .... off

SCF Procedure:
 Maximum # iterations   MaxIter         .... 10000
 SCF integral mode      SCFMode         .... Direct
   Integral package                     .... LIBINT
 Reset frequency        DirectResetFreq ....    20
 Integral Threshold     Thresh          ....  1.000e-10 Eh
 Primitive CutOff       TCut            ....  1.000e-11 Eh

Convergence Tolerance:
 Convergence Check Mode ConvCheckMode   .... All-Criteria
 Convergence forced     ConvForced      .... 0
 Energy Change          TolE            ....  1.000e-06 Eh
 Max Density Change     TolMaxP         ....  1.000e-05
 RMS Density Change     TolRMSP         ....  1.000e-06


Diagonalization of the overlap matrix:
Smallest eigenvalue                        ... 1.807e-01
Time for diagonalization                   ...    0.078 sec
Threshold for overlap eigenvalues          ... 1.000e-08
Number of eigenvalues below threshold      ... 0
Time for construction of square roots      ...    0.116 sec
Total time needed                          ...    0.194 sec

--------------------------------
INITIAL GUESS: MINIMAL BASIS EHT
--------------------------------
The minimal basis has 470 functions
EHT matrix was diagonalized
Basis set overlap was calculated now projecting the orbitals
Using GuessMode=FMatrix for the initial guess
C*T matrix was formed
Effective Fockian was calculated
Effective Fockian was diagonalized
Initial density was built
                      ------------------
                      INITIAL GUESS DONE
                      ------------------

--------------------
CPCM SOLVATION MODEL
--------------------
CPCM parameters:
  Epsilon                                         ...      78.3550
  Refrac                                          ...       1.3300
  Rsolv                                           ...       1.3000
  Surface type                                    ...    GEPOL SES
  Epsilon function type                           ...         CPCM
Solvent:                                     ... WATER
SMD-CDS solvent descriptors:
  Soln                                       ...    1.3328
  Soln25                                     ...    1.3323
  Sola                                       ...    0.0000
  Solb                                       ...    0.0000
  Solg                                       ...    0.0000
  Solc                                       ...    0.0000
  Solh                                       ...    0.0000
Radii:
 Radius for N  used is    3.5716 Bohr (=   1.8900 Ang.)
 Radius for C  used is    3.4960 Bohr (=   1.8500 Ang.)
 Radius for O  used is    2.8724 Bohr (=   1.5200 Ang.)
 Radius for H  used is    2.2677 Bohr (=   1.2000 Ang.)
Calculating surface                               ...        done! (  0.7s)
GEPOL surface points                              ...         7086
GEPOL Volume                                      ...    7603.5983
GEPOL Surface-area                                ...    3929.4515
Calculating surface distance matrix               ...        done! (  0.4s)
Performing Cholesky decomposition & store         ...        [c0702a-s28.ufhpc:03498] 14 more processes have sent help message help-mpi-btl-openib.txt / no device params found
[c0702a-s28.ufhpc:03498] Set MCA parameter "orte_base_help_aggregate" to 0 to see all help / error messages
[c0702a-s28.ufhpc:03498] 14 more processes have sent help message help-mpi-btl-openib.txt / error in device init
done! (  5.2s)
Overall time for CPCM initialization              ...                 6.3s
--------------
SCF ITERATIONS
--------------
ITER       Energy         Delta-E        Max-DP      RMS-DP      [F,P]   Gradient Norm
               ***  Starting incremental Fock matrix formation  ***
                             ****Resetting KDIIS****
                             ****Turning on KDIIS(Cayley)****
  0  -3968.9632901368   0.000000000000 0.03134925  0.00066128  0.5773725   0.200281580
  1  -3970.3599641150  -1.396673978198 0.04891507  0.00091633  0.5221209   0.179691177
  2  -3972.0442412964  -1.684277181398 0.08272966  0.00154786  0.4203690   0.145178250
  3  -3974.0406854237  -1.996444127318 0.14680656  0.00256941  0.2548741   0.088650985
  4  -3975.2869262036  -1.246240779873 0.06675329  0.00041212  0.0260568   0.005117231
  5  -3975.3177915707  -0.030865367140 0.11070008  0.00044496  0.0465435   0.004475510
  6  -3975.3614232668  -0.043631696082 0.08551567  0.00030474  0.0649170   0.004788854
  7  -3975.3964212000  -0.034997933262 0.03095492  0.00012768  0.0757787   0.005236512
  8  -3975.3845079115   0.011913288575 0.17972086  0.00058128  0.0728303   0.005121800
  9  -3975.3275272853   0.056980626139 0.08661476  0.00041641  0.0359248   0.003721662
 10  -3975.3162780715   0.011249213810 0.09191696  0.00042629  0.0175590   0.003573704
 11  -3975.3135317515   0.002746320032 0.01976132  0.00016808  0.0137053   0.002657358
 12  -3975.3220794466  -0.008547695153 0.00900341  0.00006747  0.0157812   0.002289737
 13  -3975.3254801421  -0.003400695502 0.03272611  0.00019395  0.0167983   0.002278094
 14  -3975.3182183671   0.007261775026 0.05686990  0.00031364  0.0123109   0.001993524
 15  -3975.3139440661   0.004274301061 0.06345239  0.00035140  0.0079180   0.001607259
 16  -3975.3209672000  -0.007023133957 0.00604491  0.00003740  0.0117433   0.001394558
 17  -3975.3216359904  -0.000668790386 0.01399618  0.00008723  0.0123185   0.001485118
 18  -3975.3197302191   0.001905771293 0.01951883  0.00012791  0.0095910   0.001348462
 19  -3975.3192073122   0.000522906871 0.01351830  0.00008056  0.0069199   0.001161674
               *** Restarting incremental Fock matrix formation ***
                             ****Resetting KDIIS****
 20  -3975.3188538623   0.000353449913 0.00190345  0.00001389  0.0071368   0.001208018
 21  -3975.3192201561  -0.000366293798 0.00570475  0.00004014  0.0072910   0.001211667
 22  -3975.3182870831   0.000933073003 0.01364948  0.00008502  0.0065356   0.001156885
 23  -3975.3168946477   0.001392435432 0.02158169  0.00017016  0.0055759   0.001044247
 24  -3975.3182394166  -0.001344768948 0.01337376  0.00008617  0.0049117   0.000852199
 25  -3975.3197268987  -0.001487482073 0.01164013  0.00008756  0.0056367   0.000868563
 26  -3975.3192597500   0.000467148666 0.02946081  0.00014710  0.0046582   0.000793947
 27  -3975.3214773896  -0.002217639539 0.05542131  0.00027929  0.0043819   0.000743619
 28  -3975.3255356091  -0.004058219505 0.01998050  0.00010933  0.0046552   0.000692970
 29  -3975.3271067065  -0.001571097434 0.00145835  0.00001052  0.0048742   0.000688076
 30  -3975.3271245752  -0.000017868656 0.03187875  0.00017328  0.0048259   0.000688772
 31  -3975.3249408700   0.002183705218 0.01017252  0.00005493  0.0050845   0.000630624
 32  -3975.3254731297  -0.000532259754 0.03171683  0.00018619  0.0048395   0.000629109
 33  -3975.3269921477  -0.001519018042 0.04028508  0.00023875  0.0039927   0.000594168
 34  -3975.3285831509  -0.001591003112 0.02102590  0.00010734  0.0028242   0.000481753
 35  -3975.3292593024  -0.000676151561 0.00580766  0.00002601  0.0029334   0.000406635
 36  -3975.3294723419  -0.000213039461 0.00918815  0.00003401  0.0030434   0.000400468
 37  -3975.3294262994   0.000046042502 0.00977735  0.00005612  0.0028289   0.000407696
 38  -3975.3295744493  -0.000148149877 0.01089808  0.00006041  0.0028523   0.000388192
 39  -3975.3293547453   0.000219703983 0.00717379  0.00003483  0.0029417   0.000376490
               *** Restarting incremental Fock matrix formation ***
                             ****Resetting KDIIS****
 40  -3975.3292678367   0.000086908563 0.00069164  0.00000415  0.0030236   0.000370457
 41  -3975.3293031249  -0.000035288216 0.00211598  0.00001224  0.0030630   0.000369925
 42  -3975.3292100949   0.000093030046 0.00303583  0.00001999  0.0029170   0.000363363
 43  -3975.3291046754   0.000105419494 0.00664904  0.00003947  0.0027508   0.000348157
 44  -3975.3288538349   0.000250840517 0.01278606  0.00007642  0.0024332   0.000350226
 45  -3975.3286119960   0.000241838860 0.00836137  0.00005603  0.0017231   0.000316252
 46  -3975.3288387864  -0.000226790436 0.00733249  0.00004530  0.0015810   0.000278155
 47  -3975.3291155409  -0.000276754496 0.00067812  0.00000588  0.0015608   0.000280604
 48  -3975.3290898316   0.000025709320 0.00073275  0.00000545  0.0015798   0.000282061
 49  -3975.3291059378  -0.000016106187 0.00474997  0.00003265  0.0015981   0.000282436
 50  -3975.3289811180   0.000124819765 0.00149097  0.00001358  0.0014823   0.000278012
 51  -3975.3289280470   0.000053071025 0.00509277  0.00003161  0.0015036   0.000281141
 52  -3975.3289669775  -0.000038930460 0.00607293  0.00003566  0.0016957   0.000294471
 53  -3975.3290298346  -0.000062857096 0.02238244  0.00013665  0.0016230   0.000292923
 54  -3975.3295778602  -0.000548025633 0.02473408  0.00013274  0.0022951   0.000310135
 55  -3975.3303026256  -0.000724765367 0.04032386  0.00021706  0.0047351   0.000456686
 56  -3975.3290289995   0.001273626036 0.00383961  0.00002488  0.0016338   0.000312105
 57  -3975.3291554150  -0.000126415469 0.02323844  0.00014337  0.0017910   0.000322860
 58  -3975.3287945545   0.000360860490 0.00511013  0.00003455  0.0016512   0.000308473
 59  -3975.3286590591   0.000135495380 0.00395833  0.00003193  0.0016167   0.000303600
               *** Restarting incremental Fock matrix formation ***
                             ****Resetting KDIIS****
 60  -3975.3285978043   0.000061254850 0.00048339  0.00000285  0.0016836   0.000277738
 61  -3975.3286159365  -0.000018132256 0.00108257  0.00000617  0.0016750   0.000276375
 62  -3975.3286550826  -0.000039146041 0.00106392  0.00000744  0.0016558   0.000275685
 63  -3975.3286954031  -0.000040320511 0.00921007  0.00005660  0.0016485   0.000272845
 64  -3975.3289900834  -0.000294680316 0.00847867  0.00003058  0.0016110   0.000263150
 65  -3975.3288741986   0.000115884854 0.00594056  0.00005105  0.0015387   0.000233468
 66  -3975.3290562386  -0.000182040057 0.00818473  0.00005160  0.0014022   0.000208060
 67  -3975.3292667600  -0.000210521340 0.00858957  0.00004745  0.0013173   0.000195276
 68  -3975.3294561344  -0.000189374485 0.00420221  0.00002052  0.0011760   0.000182690
 69  -3975.3295380818  -0.000081947334 0.00467010  0.00002026  0.0011176   0.000180250
 70  -3975.3296189385  -0.000080856707 0.00226157  0.00001082  0.0010769   0.000178204
 71  -3975.3295816192   0.000037319234 0.00122412  0.00000474  0.0010757   0.000179722
                          ***Energy convergence achieved***
 72  -3975.3295806656   0.000000953617 0.00201918  0.00001225  0.0010746   0.000178412
 73  -3975.3296239495  -0.000043283918 0.00648459  0.00002967  0.0010555   0.000175735
 74  -3975.3297390195  -0.000115069932 0.01033786  0.00004531  0.0009752   0.000172469
 75  -3975.3299135505  -0.000174531053 0.00276383  0.00001184  0.0009286   0.000169841
 76  -3975.3299586996  -0.000045149041 0.00894293  0.00003992  0.0009122   0.000169158
 77  -3975.3298088430   0.000149856548 0.00053216  0.00000436  0.0009403   0.000170927
 78  -3975.3298193638  -0.000010520738 0.00061828  0.00000285  0.0009235   0.000170245
 79  -3975.3298106399   0.000008723881 0.00411907  0.00001964  0.0009240   0.000170460
               *** Restarting incremental Fock matrix formation ***
                             ****Resetting KDIIS****
 80  -3975.3297405120   0.000070127862 0.00040221  0.00000172  0.0009319   0.000170200
 81  -3975.3297471422  -0.000006630184 0.00065877  0.00000282  0.0009318   0.000170011
Warning: badly conditioned DIIS matrix, 1 vectors out of 3 destroyed
 82  -3975.3297579855  -0.000010843271 0.00125254  0.00000535  0.0009318   0.000169726
 83  -3975.3297785087  -0.000020523179 0.00456344  0.00001933  0.0009310   0.000169356
 84  -3975.3297056032   0.000072905436 0.00112904  0.00000484  0.0009460   0.000170005
Warning: badly conditioned DIIS matrix, 1 vectors out of 5 destroyed
 85  -3975.3297242271  -0.000018623908 0.00290266  0.00001214  0.0009414   0.000169631
 86  -3975.3296780203   0.000046206814 0.00353928  0.00001476  0.0009467   0.000170038
 87  -3975.3296230255   0.000054994855 0.00138201  0.00000613  0.0009585   0.000170297
 88  -3975.3296094356   0.000013589821 0.00344235  0.00001537  0.0009579   0.000169519
 89  -3975.3296684178  -0.000058982118 0.01411709  0.00006000  0.0009371   0.000168619
 90  -3975.3294464783   0.000221939496 0.00146769  0.00000842  0.0009770   0.000170164
 91  -3975.3294487506  -0.000002272360 0.00386875  0.00001619  0.0009679   0.000168094
 92  -3975.3295073060  -0.000058555428 0.01861074  0.00007766  0.0009544   0.000167840
 93  -3975.3292318787   0.000275427306 0.03341770  0.00014089  0.0009948   0.000169012
 94  -3975.3287775733   0.000454305490 0.00441341  0.00002328  0.0010655   0.000180800
 95  -3975.3286870939   0.000090479358 0.01458677  0.00006373  0.0011120   0.000202194
 96  -3975.3288882995  -0.000201205611 0.00858498  0.00003714  0.0010752   0.000180234
 97  -3975.3290220233  -0.000133723769 0.01297139  0.00005595  0.0010430   0.000171674
 98  -3975.3292249402  -0.000202916890 0.01314846  0.00005728  0.0009937   0.000166462
 99  -3975.3294365303  -0.000211590097 0.01344340  0.00005545  0.0009398   0.000162546
               *** Restarting incremental Fock matrix formation ***
                             ****Resetting KDIIS****
100  -3975.3296316652  -0.000195134981 0.00039163  0.00000166  0.0009121   0.000163439
                           ***RMSP convergence achieved***
101  -3975.3296377793  -0.000006114054 0.00004533  0.00000020  0.0009101   0.000163330
                          ***Energy convergence achieved***
102  -3975.3296373197   0.000000459559 0.00098630  0.00000406  0.0009089   0.000163156
103  -3975.3296227569   0.000014562797 0.00631223  0.00002652  0.0009104   0.000163048
104  -3975.3295250800   0.000097676939 0.00855996  0.00003559  0.0009299   0.000164100
105  -3975.3293949272   0.000130152830 0.00484965  0.00001976  0.0009614   0.000165556
106  -3975.3293292821   0.000065645115 0.00098411  0.00000556  0.0009616   0.000165074
107  -3975.3293144699   0.000014812175 0.00907533  0.00003768  0.0009674   0.000166399
[...]
4649  -3975.3278105041   0.000037016276 0.00115390  0.00000472  0.0005289   0.000056668
4650  -3975.3278148870  -0.000004382981 0.00270267  0.00001484  0.0005156   0.000054453
4651  -3975.3278352757  -0.000020388653 0.02148672  0.00012362  0.0005006   0.000054209
4652  -3975.3280372086  -0.000201932911 0.04073540  0.00022547  0.0009474   0.000102885
4653  -3975.3276674700   0.000369738595 0.01565366  0.00008025  0.0009519   0.000112087
4654  -3975.3274468396   0.000220630373 0.03027065  0.00015795  0.0016838   0.000196801
4655  -3975.3278007333  -0.000353893685 0.01489616  0.00007837  0.0005830   0.000072919
4656  -3975.3276632473   0.000137486066 0.00315894  0.00001678  0.0010165   0.000120997
4657  -3975.3276970566  -0.000033809367 0.02074690  0.00011130  0.0009056   0.000109897
4658  -3975.3278682188  -0.000171162125 0.00096912  0.00000534  0.0005447   0.000093622
4659  -3975.3278606663   0.000007552411 0.01464749  0.00008389  0.0005418   0.000094756
               *** Restarting incremental Fock matrix formation ***
                             ****Resetting KDIIS****
4660  -3975.3279938622  -0.000133195813 0.00016454  0.00000102  0.0008159   0.000106101
4661  -3975.3279962228  -0.000002360695 0.00036957  0.00000224  0.0008171   0.000102297
4662  -3975.3280012001  -0.000004977244 0.00157683  0.00000918  0.0008216   0.000096725
4663  -3975.3279840154   0.000017184653 0.00278270  0.00001686  0.0007559   0.000089162
4664  -3975.3279590929   0.000024922554 0.00617044  0.00003509  0.0006569   0.000080928
4665  -3975.3279014525   0.000057640393 0.01134902  0.00006168  0.0005885   0.000088156
4666  -3975.3278203537   0.000081098744 0.00794037  0.00004305  0.0005623   0.000083492
4667  -3975.3278732658  -0.000052912047 0.00725557  0.00003954  0.0005781   0.000079517
4668  -3975.3278186457   0.000054620136 0.00570240  0.00003100  0.0005859   0.000089508
4669  -3975.3278635784  -0.000044932719 0.00089084  0.00000601  0.0005117   0.000066784
4670  -3975.3278712501  -0.000007671695 0.00260770  0.00001434  0.0005004   0.000060687
4671  -3975.3278521531   0.000019097012 0.02646089  0.00013832  0.0004968   0.000059448
4672  -3975.3276072589   0.000244894176 0.04347407  0.00023347  0.0011702   0.000128581
4673  -3975.3279970347  -0.000389775862 0.03025243  0.00016414  0.0008236   0.000110496
4674  -3975.3285817289  -0.000584694170 0.04862933  0.00028777  0.0029519   0.000336214
4675  -3975.3278123363   0.000769392596 0.01253400  0.00006542  0.0006347   0.000068149
4676  -3975.3277055575   0.000106778797 0.00048813  0.00000251  0.0009343   0.000103315
4677  -3975.3277103438  -0.000004786256 0.00146161  0.00000756  0.0009180   0.000101559
Warning: badly conditioned DIIS matrix, 1 vectors out of 5 destroyed
4678  -3975.3277243397  -0.000013995931 0.03088907  0.00016759  0.0008711   0.000096977
4679  -3975.3279741021  -0.000249762365 0.00917517  0.00005181  0.0007748   0.000104203
               *** Restarting incremental Fock matrix formation ***
                             ****Resetting KDIIS****
                           ***RMSP convergence achieved***
4680  -3975.3278936556   0.000080446488 0.00012045  0.00000076  0.0005885   0.000081802
4681  -3975.3278949727  -0.000001317112 0.00040410  0.00000235  0.0005861   0.000077833
4682  -3975.3278987438  -0.000003771098 0.00023983  0.00000154  0.0005818   0.000072699
4683  -3975.3279011213  -0.000002377479 0.00165557  0.00000998  0.0005710   0.000066650
                           ***RMSP convergence achieved***
4684  -3975.3278888454   0.000012275864 0.00006641  0.00000039  0.0005237   0.000060919
                          ***Energy convergence achieved***
4685  -3975.3278892830  -0.000000437541 0.00854711  0.00004748  0.0005237   0.000060842
4686  -3975.3278226585   0.000066624478 0.00442355  0.00002438  0.0005293   0.000067837
4687  -3975.3278566110  -0.000033952545 0.00535512  0.00003033  0.0004952   0.000063538
4688  -3975.3279000812  -0.000043470192 0.00724707  0.00004314  0.0005410   0.000062779
4689  -3975.3278380728   0.000062008368 0.00255583  0.00001539  0.0005833   0.000070055
4690  -3975.3278598079  -0.000021735100 0.00342203  0.00001988  0.0005339   0.000067473
4691  -3975.3278886860  -0.000028878038 0.01846432  0.00010178  0.0005362   0.000063923
4692  -3975.3277359783   0.000152707690 0.03808895  0.00021826  0.0007258   0.000086737
4693  -3975.3281171031  -0.000381124761 0.04661079  0.00026420  0.0012118   0.000126690
4694  -3975.3276381964   0.000478906605 0.00622598  0.00003489  0.0011140   0.000139898
4695  -3975.3277124955  -0.000074299049 0.01205726  0.00006752  0.0008183   0.000108756
4696  -3975.3278260758  -0.000113580276 0.01376543  0.00007508  0.0005157   0.000071401
4697  -3975.3277086392   0.000117436531 0.00685927  0.00003928  0.0008046   0.000112222
4698  -3975.3277625928  -0.000053953604 0.01601728  0.00009005  0.0007114   0.000092957
4699  -3975.3278933352  -0.000130742346 0.01752637  0.00010557  0.0005606   0.000071042
               *** Restarting incremental Fock matrix formation ***
                             ****Resetting KDIIS****
4700  -3975.3280955038  -0.000202168615 0.00022157  0.00000139  0.0011318   0.000124390
4701  -3975.3280993904  -0.000003886620 0.00012000  0.00000102  0.0011357   0.000122244
                          ***Energy convergence achieved***
4702  -3975.3280988568   0.000000533586 0.00076100  0.00000431  0.0011216   0.000115398
4703  -3975.3280939315   0.000004925385 0.00485137  0.00002745  0.0010906   0.000106404
4704  -3975.3280299806   0.000063950885 0.01373643  0.00007555  0.0008896   0.000095619
4705  -3975.3279094910   0.000120489540 0.00139911  0.00000774  0.0005710   0.000093360
4706  -3975.3279023492   0.000007141829 0.00173010  0.00000537  0.0005461   0.000091627
4707  -3975.3278952641   0.000007085063 0.00337006  0.00001992  0.0005870   0.000084313
4708  -3975.3278731158   0.000022148389 0.00171823  0.00001136  0.0005774   0.000087644
4709  -3975.3278845476  -0.000011431881 0.00361007  0.00001936  0.0005407   0.000085549
4710  -3975.3279093069  -0.000024759249 0.00197403  0.00001095  0.0005153   0.000068821
4711  -3975.3279219568  -0.000012649959 0.00112101  0.00000669  0.0005214   0.000060667
4712  -3975.3279324504  -0.000010493540 0.00721701  0.00004108  0.0005273   0.000063476
4713  -3975.3278708252   0.000061625130 0.00112911  0.00000653  0.0005437   0.000058284
4714  -3975.3278796943  -0.000008869062 0.00028145  0.00000185  0.0005339   0.000055334
4715  -3975.3278771583   0.000002536010 0.00227685  0.00001308  0.0005362   0.000055151
4716  -3975.3278965103  -0.000019352040 0.02837805  0.00015870  0.0005410   0.000056643
4717  -3975.3276283431   0.000268167197 0.01606669  0.00008937  0.0011204   0.000115925
4718  -3975.3277920063  -0.000163663188 0.01827558  0.00010781  0.0006765   0.000090874
4719  -3975.3279548654  -0.000162859037 0.00897690  0.00005455  0.0006568   0.000092294
               *** Restarting incremental Fock matrix formation ***
                             ****Resetting KDIIS****
                           ***RMSP convergence achieved***
4720  -3975.3278711572   0.000083708130 0.00012754  0.00000077  0.0005831   0.000079322
4721  -3975.3278723312  -0.000001173947 0.00043292  0.00000245  0.0005785   0.000074990
4722  -3975.3278760712  -0.000003740004 0.00023350  0.00000150  0.0005695   0.000069234
4723  -3975.3278781311  -0.000002059907 0.00149318  0.00000872  0.0005537   0.000063077
                           ***RMSP convergence achieved***
4724  -3975.3278900376  -0.000011906481 0.00007638  0.00000042  0.0005195   0.000056255
                          ***Energy convergence achieved***
4725  -3975.3278894461   0.000000591445 0.00744130  0.00004047  0.0005194   0.000056249
4726  -3975.3278320880   0.000057358173 0.00309301  0.00001679  0.0005318   0.000058540
4727  -3975.3278552559  -0.000023167972 0.00042934  0.00000287  0.0005146   0.000058680
4728  -3975.3278518943   0.000003361602 0.00501188  0.00002845  0.0005141   0.000060569
4729  -3975.3278919752  -0.000040080899 0.00113571  0.00000769  0.0005534   0.000060634
4730  -3975.3279003423  -0.000008367112 0.00175493  0.00000988  0.0005221   0.000061594
4731  -3975.3279150572  -0.000014714813 0.02818443  0.00015223  0.0005327   0.000063062
4732  -3975.3276659964   0.000249060720 0.04032866  0.00022260  0.0009764   0.000108889
4733  -3975.3280404659  -0.000374469447 0.01224765  0.00007085  0.0008318   0.000106053
4734  -3975.3279132992   0.000127166652 0.00440619  0.00002560  0.0005875   0.000085958
4735  -3975.3278762366   0.000037062667 0.00903806  0.00005248  0.0005897   0.000078209
4736  -3975.3279567794  -0.000080542829 0.00549346  0.00003289  0.0006547   0.000083546
4737  -3975.3279047213   0.000052058060 0.02370315  0.00012957  0.0006392   0.000082825
4738  -3975.3277005267   0.000204194598 0.05501113  0.00031844  0.0009526   0.000107692
4739  -3975.3284016295  -0.000701102735 0.04828397  0.00028302  0.0021300   0.000246348
               *** Restarting incremental Fock matrix formation ***
                             ****Resetting KDIIS****
                           ***RMSP convergence achieved***
4740  -3975.3277665710   0.000635058473 0.00015810  0.00000094  0.0007726   0.000093229
4741  -3975.3277684106  -0.000001839601 0.00039809  0.00000234  0.0007581   0.000088408
4742  -3975.3277727199  -0.000004309312 0.00045229  0.00000256  0.0007286   0.000081784
4743  -3975.3277764567  -0.000003736812 0.00368539  0.00001910  0.0006934   0.000074288
4744  -3975.3278036878  -0.000027231116 0.00478677  0.00002462  0.0005660   0.000057428
4745  -3975.3278385241  -0.000034836252 0.00502681  0.00002650  0.0005125   0.000058217
4746  -3975.3278762560  -0.000037731868 0.00313478  0.00001707  0.0005357   0.000062390
4747  -3975.3278515513   0.000024704622 0.00287054  0.00001610  0.0005112   0.000062221
4748  -3975.3278716285  -0.000020077204 0.00085046  0.00000463  0.0004829   0.000061923
4749  -3975.3278657374   0.000005891110 0.00403920  0.00002105  0.0004824   0.000062474
4750  -3975.3278382332   0.000027504231 0.00198815  0.00001075  0.0005006   0.000055486
4751  -3975.3278531320  -0.000014898833 0.02666332  0.00015175  0.0004896   0.000055390
4752  -3975.3281332746  -0.000280142590 0.02994256  0.00016860  0.0012071   0.000138525
4753  -3975.3278303385   0.000302936096 0.00507141  0.00002679  0.0005512   0.000073279
4754  -3975.3277926370   0.000037701525 0.00781547  0.00004156  0.0006256   0.000079185
4755  -3975.3278497864  -0.000057149354 0.01109503  0.00005909  0.0005548   0.000064786
4756  -3975.3277616465   0.000088139820 0.01538312  0.00008265  0.0007441   0.000081525
4757  -3975.3278827210  -0.000121074513 0.02908430  0.00016886  0.0005615   0.000071783
4758  -3975.3282576067  -0.000374885693 0.04175281  0.00023685  0.0016839   0.000195607
4759  -3975.3277840077   0.000473599001 0.01611448  0.00008382  0.0006768   0.000079792
               *** Restarting incremental Fock matrix formation ***
                             ****Resetting KDIIS****
4760  -3975.3276219963   0.000162011414 0.00023423  0.00000133  0.0011749   0.000134214
4761  -3975.3276257978  -0.000003801489 0.00103117  0.00000552  0.0011512   0.000126775
4762  -3975.3276400616  -0.000014263785 0.00220516  0.00001200  0.0010800   0.000116968
4763  -3975.3276693936  -0.000029332041 0.00362912  0.00001911  0.0009480   0.000103451
4764  -3975.3277065003  -0.000037106674 0.00514630  0.00002783  0.0007390   0.000088993
4765  -3975.3277600505  -0.000053550228 0.00112178  0.00000611  0.0005730   0.000086193
4766  -3975.3277487661   0.000011284394 0.00087949  0.00000475  0.0005907   0.000085315
4767  -3975.3277571473  -0.000008381140 0.00197332  0.00000980  0.0005740   0.000085471
4768  -3975.3277384452   0.000018702051 0.00065880  0.00000326  0.0006137   0.000078443
4769  -3975.3277439419  -0.000005496709 0.00324600  0.00001680  0.0006166   0.000080038
4770  -3975.3277654599  -0.000021517960 0.01310040  0.00006813  0.0005297   0.000075476
4771  -3975.3278522339  -0.000086774015 0.01449860  0.00007886  0.0005015   0.000073006
4772  -3975.3279647984  -0.000112564500 0.01611617  0.00008780  0.0007308   0.000095724
4773  -3975.3278392468   0.000125551644 0.02081416  0.00010773  0.0004790   0.000076148
4774  -3975.3276759940   0.000163252806 0.00174120  0.00000875  0.0009655   0.000107384
4775  -3975.3276576628   0.000018331167 0.00286372  0.00001545  0.0010312   0.000114750
4776  -3975.3276849633  -0.000027300486 0.00591971  0.00002996  0.0009589   0.000121191
4777  -3975.3276185783   0.000066384940 0.02483838  0.00012647  0.0012107   0.000146634
4778  -3975.3278354551  -0.000216876783 0.00353589  0.00001925  0.0005515   0.000085319
4779  -3975.3278590072  -0.000023552047 0.01545776  0.00008490  0.0005378   0.000078344
               *** Restarting incremental Fock matrix formation ***
                             ****Resetting KDIIS****
4780  -3975.3279900743  -0.000131067128 0.00016896  0.00000108  0.0008472   0.000106889
4781  -3975.3279926294  -0.000002555077 0.00016582  0.00000119  0.0008485   0.000104053
4782  -3975.3279953283  -0.000002698932 0.00054966  0.00000287  0.0008464   0.000098823
4783  -3975.3279934841   0.000001844205 0.00150142  0.00000894  0.0008238   0.000090501
4784  -3975.3279766174   0.000016866743 0.00940091  0.00005314  0.0007482   0.000083135
4785  -3975.3278951191   0.000081498224 0.00077758  0.00000389  0.0005031   0.000083070
                          ***Energy convergence achieved***
4786  -3975.3278956477  -0.000000528589 0.00302399  0.00001737  0.0004682   0.000082284
4787  -3975.3278684538   0.000027193950 0.00054498  0.00000362  0.0004660   0.000080069
4788  -3975.3278739416  -0.000005487824 0.00037292  0.00000214  0.0004869   0.000081393
4789  -3975.3278711941   0.000002747552 0.02106966  0.00011789  0.0004864   0.000080612
4790  -3975.3276888773   0.000182316755 0.03118925  0.00017824  0.0007517   0.000096844
4791  -3975.3279701826  -0.000281305333 0.05026633  0.00027671  0.0006269   0.000104923
4792  -3975.3274214363   0.000548746375 0.00616421  0.00003139  0.0016829   0.000215332
4793  -3975.3275243115  -0.000102875196 0.01223242  0.00006376  0.0013404   0.000175468
4794  -3975.3276788776  -0.000154566176 0.01556245  0.00008441  0.0008050   0.000117813
4795  -3975.3278148438  -0.000135966209 0.00068141  0.00000388  0.0004716   0.000081411
4796  -3975.3278102210   0.000004622853 0.00933135  0.00005288  0.0004718   0.000082966
4797  -3975.3278819223  -0.000071701321 0.02849562  0.00016165  0.0004927   0.000087806
4798  -3975.3282517853  -0.000369863044 0.01941714  0.00010647  0.0017898   0.000219478
4799  -3975.3279714065   0.000280378844 0.01213486  0.00006955  0.0007491   0.000101482
               *** Restarting incremental Fock matrix formation ***
                             ****Resetting KDIIS****
                           ***RMSP convergence achieved***
4800  -3975.3278650152   0.000106391341 0.00011280  0.00000069  0.0005393   0.000070688
4801  -3975.3278660402  -0.000001025068 0.00042946  0.00000252  0.0005335   0.000068424
4802  -3975.3278698532  -0.000003812996 0.00066768  0.00000393  0.0005231   0.000065574
4803  -3975.3278756992  -0.000005845978 0.00101668  0.00000595  0.0005076   0.000062046
4804  -3975.3278816787  -0.000005979468 0.00395688  0.00002349  0.0005202   0.000072559
4805  -3975.3279143975  -0.000032718779 0.00257122  0.00001545  0.0005977   0.000079765
4806  -3975.3279393000  -0.000024902550 0.02268291  0.00013061  0.0006756   0.000086690
4807  -3975.3277477516   0.000191548359 0.01371752  0.00007746  0.0005877   0.000088037
4808  -3975.3278586926  -0.000110940986 0.00580597  0.00003347  0.0004837   0.000073463
4809  -3975.3278127554   0.000045937252 0.00130302  0.00000741  0.0004928   0.000065508
4810  -3975.3278022642   0.000010491215 0.02332779  0.00013866  0.0005037   0.000066992
4811  -3975.3280227318  -0.000220467677 0.01714990  0.00010225  0.0008877   0.000107053
4812  -3975.3278534570   0.000169274842 0.01618843  0.00009007  0.0004983   0.000069806
4813  -3975.3277194923   0.000133964686 0.00158186  0.00000870  0.0007420   0.000088709
4814  -3975.3277319501  -0.000012457821 0.00418127  0.00002307  0.0006946   0.000089887
4815  -3975.3277690735  -0.000037123371 0.01939396  0.00011230  0.0006001   0.000080496
4816  -3975.3279320023  -0.000162928820 0.01475361  0.00008581  0.0006270   0.000085391
4817  -3975.3278081357   0.000123866625 0.00960241  0.00005360  0.0005286   0.000072432
4818  -3975.3277249600   0.000083175717 0.00355629  0.00001929  0.0007151   0.000090359
4819  -3975.3276900650   0.000034894981 0.00213872  0.00001226  0.0008204   0.000101838
               *** Restarting incremental Fock matrix formation ***
                             ****Resetting KDIIS****
                           ***RMSP convergence achieved***
4820  -3975.3277106294  -0.000020564371 0.00016086  0.00000093  0.0007672   0.000099332
4821  -3975.3277126332  -0.000002003801 0.00065781  0.00000352  0.0007545   0.000094299
4822  -3975.3277194730  -0.000006839780 0.00195268  0.00001051  0.0007206   0.000087436
4823  -3975.3277386882  -0.000019215244 0.00274159  0.00001462  0.0006477   0.000074982
4824  -3975.3277614607  -0.000022772470 0.00190278  0.00001024  0.0005552   0.000064916
4825  -3975.3277767538  -0.000015293132 0.00165250  0.00000907  0.0005398   0.000062722
4826  -3975.3277906832  -0.000013929401 0.00103784  0.00000350  0.0005505   0.000064089
                          ***Energy convergence achieved***
4827  -3975.3277915967  -0.000000913472 0.00369120  0.00002147  0.0005394   0.000062959
4828  -3975.3278178151  -0.000026218437 0.00953609  0.00005458  0.0004749   0.000057589
4829  -3975.3278921768  -0.000074361732 0.00854051  0.00004867  0.0005536   0.000062388
4830  -3975.3278251329   0.000067043968 0.01796561  0.00009724  0.0004988   0.000065881
4831  -3975.3276748230   0.000150309849 0.01160807  0.00006217  0.0008312   0.000091535
4832  -3975.3277784810  -0.000103657937 0.00127674  0.00000537  0.0005773   0.000067277
4833  -3975.3277741328   0.000004348143 0.00264960  0.00001611  0.0006052   0.000069968
4834  -3975.3277933638  -0.000019230992 0.01211534  0.00006910  0.0005530   0.000063976
4835  -3975.3278882947  -0.000094930885 0.00536526  0.00003104  0.0005319   0.000067364
4836  -3975.3278454095   0.000042885180 0.00206245  0.00000789  0.0005310   0.000073199
4837  -3975.3278502786  -0.000004869064 0.00440450  0.00002541  0.0004688   0.000059174
4838  -3975.3278855797  -0.000035301146 0.02957345  0.00016311  0.0004985   0.000061239
4839  -3975.3276192948   0.000266284926 0.04758705  0.00027034  0.0010386   0.000121266
               *** Restarting incremental Fock matrix formation ***
                             ****Resetting KDIIS****
4840  -3975.3280876321  -0.000468337302 0.00023104  0.00000143  0.0011727   0.000144368
4841  -3975.3280920093  -0.000004377187 0.00041767  0.00000259  0.0011813   0.000138244
Warning: badly conditioned DIIS matrix, 1 vectors out of 3 destroyed
4842  -3975.3280997162  -0.000007706883 0.00064608  0.00000402  0.0011974   0.000129079
4843  -3975.3281111872  -0.000011470981 0.00250268  0.00001464  0.0012238   0.000120264
4844  -3975.3281541361  -0.000042948930 0.01101724  0.00006424  0.0013770   0.000132776
4845  -3975.3280067586   0.000147377501 0.00263446  0.00001623  0.0008192   0.000103531
4846  -3975.3279726434   0.000034115147 0.00812710  0.00004528  0.0007803   0.000103554
4847  -3975.3279046245   0.000068018931 0.00472074  0.00002577  0.0005942   0.000086494
4848  -3975.3278764580   0.000028166541 0.00279566  0.00001576  0.0006058   0.000091160
4849  -3975.3278887779  -0.000012319964 0.00565740  0.00002010  0.0005660   0.000084109
4850  -3975.3278729057   0.000015872212 0.01963577  0.00010355  0.0006558   0.000087750
slurmstepd: error: *** JOB 5288137 ON c0702a-s28 CANCELLED AT 2023-08-04T06:11:26 DUE TO TIME LIMIT ***
