/home/zfg2013/blue_zfg2013/INPS
c27a-s36.ufhpc
Fri Aug  4 00:33:53 EDT 2023

                                 *****************
                                 * O   R   C   A *
                                 *****************

           --- An Ab Initio, DFT and Semiempirical electronic structure package ---

                  #######################################################
                  #                        -***-                        #
                  #          Department of theory and spectroscopy      #
                  #               Directorship: Frank Neese             #
                  #        Max Planck Institute fuer Kohlenforschung    #
                  #                Kaiser Wilhelm Platz 1               #
                  #                 D-45470 Muelheim/Ruhr               #
                  #                      Germany                        #
                  #                                                     #
                  #                  All rights reserved                #
                  #                        -***-                        #
                  #######################################################


                         Program Version 4.2.1 -  RELEASE  -


 With contributions from (in alphabetic order):
   Daniel Aravena         : Magnetic Suceptibility
   Michael Atanasov       : Ab Initio Ligand Field Theory (pilot matlab implementation)
   Alexander A. Auer      : GIAO ZORA, VPT2
   Ute Becker             : Parallelization
   Giovanni Bistoni       : ED, misc. LED, open-shell LED, HFLD
   Martin Brehm           : Molecular dynamics
   Dmytro Bykov           : SCF Hessian
   Vijay G. Chilkuri      : MRCI spin determinant printing, contributions to CSF-ICE
   Dipayan Datta          : RHF DLPNO-CCSD density
   Achintya Kumar Dutta   : EOM-CC, STEOM-CC
   Dmitry Ganyushin       : Spin-Orbit,Spin-Spin,Magnetic field MRCI
   Miquel Garcia          : C-PCM Hessian, Gaussian charge scheme
   Yang Guo               : DLPNO-NEVPT2, CIM, IAO-localization
   Andreas Hansen         : Spin unrestricted coupled pair/coupled cluster methods
   Benjamin Helmich-Paris : CASSCF linear response (MC-RPA)
   Lee Huntington         : MR-EOM, pCC
   Robert Izsak           : Overlap fitted RIJCOSX, COSX-SCS-MP3, EOM
   Christian Kollmar      : KDIIS, OOCD, Brueckner-CCSD(T), CCSD density
   Simone Kossmann        : Meta GGA functionals, TD-DFT gradient, OOMP2, MP2 Hessian
   Martin Krupicka        : AUTO-CI
   Lucas Lang             : DCDCAS
   Dagmar Lenk            : GEPOL surface, SMD
   Dimitrios Liakos       : Extrapolation schemes; Compound Job, initial MDCI parallelization
   Dimitrios Manganas     : Further ROCIS development; embedding schemes
   Dimitrios Pantazis     : SARC Basis sets
   Taras Petrenko         : DFT Hessian,TD-DFT gradient, ASA, ECA, R-Raman, ABS, FL, XAS/XES, NRVS
   Peter Pinski           : DLPNO-MP2, DLPNO-MP2 Gradient
   Christoph Reimann      : Effective Core Potentials
   Marius Retegan         : Local ZFS, SOC
   Christoph Riplinger    : Optimizer, TS searches, QM/MM, DLPNO-CCSD(T), (RO)-DLPNO pert. Triples
   Tobias Risthaus        : Range-separated hybrids, TD-DFT gradient, RPA, STAB
   Michael Roemelt        : Original ROCIS implementation
   Masaaki Saitow         : Open-shell DLPNO-CCSD energy and density
   Barbara Sandhoefer     : DKH picture change effects
   Avijit Sen             : IP-ROCIS
   Kantharuban Sivalingam : CASSCF convergence, NEVPT2, FIC-MRCI
   Bernardo de Souza      : ESD, SOC TD-DFT
   Georgi Stoychev        : AutoAux, RI-MP2 NMR
   Willem Van den Heuvel  : Paramagnetic NMR
   Boris Wezisla          : Elementary symmetry handling
   Frank Wennmohs         : Technical directorship


 We gratefully acknowledge several colleagues who have allowed us to
 interface, adapt or use parts of their codes:
   Stefan Grimme, W. Hujo, H. Kruse,             : VdW corrections, initial TS optimization,
                  C. Bannwarth                     DFT functionals, gCP, sTDA/sTD-DF
   Ed Valeev, F. Pavosevic, A. Kumar             : LibInt (2-el integral package), F12 methods
   Garnet Chan, S. Sharma, J. Yang, R. Olivares  : DMRG
   Ulf Ekstrom                                   : XCFun DFT Library
   Mihaly Kallay                                 : mrcc  (arbitrary order and MRCC methods)
   Andreas Klamt, Michael Diedenhofen            : otool_cosmo (COSMO solvation model)
   Jiri Pittner, Ondrej Demel                    : Mk-CCSD
   Frank Weinhold                                : gennbo (NPA and NBO analysis)
   Christopher J. Cramer and Donald G. Truhlar   : smd solvation model
   Lars Goerigk                                  : TD-DFT with DH, B97 family of functionals
   V. Asgeirsson, H. Jonsson                     : NEB implementation
   FAccTs GmbH                                   : IRC, NEB, NEB-TS, Multilevel, MM, QM/MM, CI optimization
   S Lehtola, MJT Oliveira, MAL Marques          : LibXC Library


 Your calculation uses the libint2 library for the computation of 2-el integrals
 For citations please refer to: http://libint.valeyev.net

 Your ORCA version has been built with support for libXC version: 4.2.3
 For citations please refer to: https://tddft.org/programs/libxc/

 This ORCA versions uses:
   CBLAS   interface :  Fast vector & matrix operations
   LAPACKE interface :  Fast linear algebra routines
   SCALAPACK package :  Parallel linear algebra routines


Your calculation utilizes the geometrical counterpoise correction gCP
Please cite in your paper:
H.Kruse, S. Grimme J.Chem.Phys., 136, (2012), 154101 
   

Your calculation utilizes the atom-pairwise dispersion correction
with the Becke-Johnson damping scheme (D3BJ)
Cite in your paper:
S.Grimme, S.Ehrlich, L.Goerigk, J Comput Chem, (2011), 32, 1456–1465 
S.Grimme, J.Antony, S.Ehrlich and H.Krieg, J.Chem.Phys., 132, (2010), 154104 
   

Your calculation utilizes the SMD solvation module
Please cite in your paper:
A.V. Marenich, C.J. Cramer, D.G. Truhlar J. Phys. Chem. B, 113, (2009), 6378 

----- Orbital basis set information -----
Your calculation utilizes the basis: MINIX,
   a combination of small basis sets by S. Grimme (see manual for definitions).

================================================================================
                                        WARNINGS
                       Please study these warnings very carefully!
================================================================================


INFO   : the flag for use of LIBINT has been found!

================================================================================
                                       INPUT FILE
================================================================================
NAME = HDMFINYMD.inp
|  1> !HF-3c CPCM KDIIS SmallPrint
|  2> %PAL NPROCS 15 END
|  3> %maxcore 10000
|  4> %CPCM
|  5> SMD TRUE
|  6> SMDSOLVENT "WATER"
|  7> END
|  8> 
|  9> %scf
| 10> SCFmode Direct
| 11> maxiter 10000
| 12> 
| 13> end
| 14> 
| 15> %geom
| 16> 
| 17> Constraints
| 18> {C 2 C}
| 19> {C 21 C}
| 20> {C 33 C}
| 21> {C 50 C}
| 22> {C 70 C}
| 23> {C 89 C}
| 24> {C 103 C}
| 25> {C 124 C}
| 26> {C 141 C}
| 27> 
| 28> end
| 29> 
| 30> maxiter 10000
| 31> 
| 32> end
| 33> 
| 34> * xyz 0 1
| 35>    N        0.00000         0.00000         0.00000
| 36>    C        1.46145         0.00000         0.00000
| 37>    C        1.94774         0.00000         1.45615
| 38>    O        1.18426         0.00000         2.41946
| 39>    C        2.04411         1.20336         -0.76878
| 40>    H        2.63381         1.85004         -0.10703
| 41>    H        1.24387         1.83827         -1.17112
| 42>    C        2.90609         0.76454         -1.90397
| 43>    N        2.40386         0.09306         -2.99477
| 44>    C        3.45453         -0.18863         -3.81870
| 45>    H        3.33445         -0.73115         -4.74678
| 46>    N        4.58505         0.27510         -3.33539
| 47>    C        4.25427         0.88487         -2.15432
| 48>    H        5.00749         1.36841         -1.54511
| 49>    H        1.43192         -0.17656         -3.13345
| 50>    H        -0.46323         0.13431         0.89571
| 51>    H        1.77077         -0.95781         -0.43895
| 52>    H        -0.34000         0.08381         -0.95801
| 53>    H        -0.34000         0.94706         -0.16699
| 54>    N        3.26069         -0.00000         1.72406
| 55>    C        3.72450         0.00022         3.11290
| 56>    C        5.26445         0.00016         3.04617
| 57>    O        5.88774         -0.00005         1.98541
| 58>    C        3.21119         -1.22580         3.86687
| 59>    C        3.29255         -1.02701         5.35262
| 60>    O        3.82340         -0.10091         5.94486
| 61>    O        2.73568         -2.04834         6.03105
| 62>    H        3.38973         0.93690         3.57471
| 63>    H        3.78889         -2.11861         3.60183
| 64>    H        2.15840         -1.40896         3.62258
| 65>    H        3.95142         -0.19908         1.00373
| 66>    N        5.98406         0.00032         4.17655
| 67>    C        7.44136         0.00004         4.11339
| 68>    C        7.94028         0.00034         5.56747
| 69>    O        7.18647         0.00073         6.53852
| 70>    C        7.94774         1.22823         3.34468
| 71>    C        9.41384         1.09793         2.93668
| 72>    S        9.92256         2.55275         1.96512
| 73>    C        11.60535         2.03305         1.55421
| 74>    H        7.76185         -0.92588         3.62116
| 75>    H        7.80629         2.12930         3.95709
| 76>    H        7.33592         1.36166         2.44250
| 77>    H        9.55651         0.19852         2.32868
| 78>    H        10.06114         1.03618         3.81502
| 79>    H        12.18834         1.87401         2.46504
| 80>    H        12.08974         2.81473         0.96308
| 81>    H        11.58549         1.11325         0.96393
| 82>    H        5.54957         0.44457         4.98063
| 83>    N        9.25538         0.00016         5.82458
| 84>    C        9.72977         0.00067         7.20716
| 85>    C        11.26638         0.00031         7.14546
| 86>    O        11.89427         -0.00029         6.08703
| 87>    C        9.20831         -1.22421         7.97659
| 88>    C        9.21951         -1.03546         9.47604
| 89>    C        10.20249         -1.64006         10.27061
| 90>    C        10.21572         -1.43787         11.65144
| 91>    C        9.24312         -0.63893         12.25021
| 92>    C        8.25584         -0.04084         11.46954
| 93>    C        8.24413         -0.23595         10.08834
| 94>    H        9.91590         -0.27992         5.10431
| 95>    H        9.39869         0.93963         7.66762
| 96>    H        9.78906         -2.11728         7.70984
| 97>    H        8.17558         -1.45319         7.68140
| 98>    H        10.96601         -2.27114         9.82014
| 99>    H        10.98106         -1.90980         12.26247
|100>    H        9.24877         -0.48896         13.32679
|101>    H        7.48994         0.57354         11.93630
|102>    H        7.46346         0.23336         9.48994
|103>    N        11.98240         0.00065         8.27812
|104>    C        13.44148         0.00009         8.21954
|105>    C        13.94187         0.00068         9.67682
|106>    O        13.18600         0.00146         10.64701
|107>    C        13.98363         1.17840         7.36888
|108>    C        15.50977         1.08093         7.16541
|109>    C        16.03330         1.99108         6.06151
|110>    H        13.74424         -0.94853         7.75752
|111>    C        13.58238         2.54335         7.94603
|112>    H        15.77787         0.04959         6.90629
|113>    H        16.03535         1.32724         8.09513
|114>    H        15.88672         3.04737         6.30338
|115>    H        15.53563         1.77971         5.10994
|116>    H        17.10757         1.83063         5.92338
|117>    H        11.55288         0.39135         9.11208
|118>    H        13.51482         1.10279         6.37791
|119>    H        13.85312         3.35494         7.26368
|120>    H        14.07349         2.73475         8.90540
|121>    H        12.50025         2.60870         8.09868
|122>    N        15.25703         0.00033         9.93363
|123>    C        15.73285         0.00112         11.31937
|124>    C        17.27143         0.00045         11.23555
|125>    O        17.88133         -0.00054         10.16547
|126>    C        15.23011         -1.22975         12.07315
|127>    H        14.15131         -1.35638         11.92109
|128>    H        15.72591         -2.13635         11.70500
|129>    C        15.46035         -1.12349         13.56197
|130>    O        15.94282         -0.14736         14.12570
|131>    N        15.11467         -2.23860         14.26641
|132>    H        14.64837         -3.03240         13.84842
|133>    H        15.22340         -2.21926         15.27268
|134>    H        15.39765         0.93313         11.78982
|135>    H        15.94321         -0.20373         9.21060
|136>    N        18.00356         0.00094         12.35786
|137>    C        19.46306         0.00009         12.27835
|138>    C        19.98335         0.00096         13.72586
|139>    O        19.23751         0.00214         14.70469
|140>    C        19.98040         1.22394         11.50418
|141>    H        19.31623         1.45570         10.66083
|142>    H        19.95712         2.11686         12.14302
|143>    C        21.37120         1.03088         10.94451
|144>    C        22.48121         1.63015         11.55494
|145>    H        22.35795         2.26087         12.43308
|146>    C        23.76297         1.42075         11.04499
|147>    H        24.62394         1.88290         11.51969
|148>    C        23.93588         0.62419         9.91935
|149>    C        22.84659         0.02900         9.29290
|150>    H        22.97136         -0.58961         8.40956
|151>    C        21.56468         0.23125         9.80758
|152>    H        20.71155         -0.23382         9.31371
|153>    O        25.20545         0.45001         9.45438
|154>    H        25.16637         -0.07685         8.63911
|155>    H        19.76448         -0.93961         11.79944
|156>    H        17.58436         0.27194         13.24367
|157>    N        21.30205         0.00043         13.96383
|158>    C        21.79546         0.00148         15.33652
|159>    C        23.33017         0.00051         15.24764
|160>    O        23.94345         -0.00087         14.18226
|161>    C        21.27526         -1.22598         16.09713
|162>    C        21.45289         -1.09469         17.60847
|163>    S        20.74574         -2.54864         18.44822
|164>    C        21.00288         -2.02785         20.16094
|165>    H        21.46161         0.92787         15.81889
|166>    H        21.78814         -2.12750         15.73494
|167>    H        20.20853         -1.35914         15.87261
|168>    H        20.94455         -0.19483         17.97012
|169>    H        22.51096         -1.03317         17.87490
|170>    H        22.06671         -1.86909         20.35548
|171>    H        20.63889         -2.80891         20.83364
|172>    H        20.44941         -1.10768         20.36544
|173>    H        21.88154         -0.44454         13.25751
|174>    N        24.06614         0.00117         16.36744
|175>    C        25.52793         0.00003         16.28279
|176>    C        26.03738         0.00121         17.73756
|177>    O        25.28363         0.00279         18.70997
|178>    C        26.03830         1.22503         15.52517
|179>    C        27.44805         1.02496         15.04962
|180>    O        28.19447         0.09870         15.32371
|181>    O        27.87200         2.04530         14.27977
|182>    H        25.83201         -0.93729         15.80146
|183>    H        26.00707         2.11846         16.15911
|184>    H        25.42091         1.40768         14.63802
|185>    H        23.65366         0.20137         17.27595
|186>    O        27.37700         0.00043         17.91255
|187> *
|188> 
|189>                          ****END OF INPUT****
================================================================================

                       ****************************
                       * Single Point Calculation *
                       ****************************

---------------------------------
CARTESIAN COORDINATES (ANGSTROEM)
---------------------------------
  N      0.000000    0.000000    0.000000
  C      1.461450    0.000000    0.000000
  C      1.947740    0.000000    1.456150
  O      1.184260    0.000000    2.419460
  C      2.044110    1.203360   -0.768780
  H      2.633810    1.850040   -0.107030
  H      1.243870    1.838270   -1.171120
  C      2.906090    0.764540   -1.903970
  N      2.403860    0.093060   -2.994770
  C      3.454530   -0.188630   -3.818700
  H      3.334450   -0.731150   -4.746780
  N      4.585050    0.275100   -3.335390
  C      4.254270    0.884870   -2.154320
  H      5.007490    1.368410   -1.545110
  H      1.431920   -0.176560   -3.133450
  H     -0.463230    0.134310    0.895710
  H      1.770770   -0.957810   -0.438950
  H     -0.340000    0.083810   -0.958010
  H     -0.340000    0.947060   -0.166990
  N      3.260690   -0.000000    1.724060
  C      3.724500    0.000220    3.112900
  C      5.264450    0.000160    3.046170
  O      5.887740   -0.000050    1.985410
  C      3.211190   -1.225800    3.866870
  C      3.292550   -1.027010    5.352620
  O      3.823400   -0.100910    5.944860
  O      2.735680   -2.048340    6.031050
  H      3.389730    0.936900    3.574710
  H      3.788890   -2.118610    3.601830
  H      2.158400   -1.408960    3.622580
  H      3.951420   -0.199080    1.003730
  N      5.984060    0.000320    4.176550
  C      7.441360    0.000040    4.113390
  C      7.940280    0.000340    5.567470
  O      7.186470    0.000730    6.538520
  C      7.947740    1.228230    3.344680
  C      9.413840    1.097930    2.936680
  S      9.922560    2.552750    1.965120
  C     11.605350    2.033050    1.554210
  H      7.761850   -0.925880    3.621160
  H      7.806290    2.129300    3.957090
  H      7.335920    1.361660    2.442500
  H      9.556510    0.198520    2.328680
  H     10.061140    1.036180    3.815020
  H     12.188340    1.874010    2.465040
  H     12.089740    2.814730    0.963080
  H     11.585490    1.113250    0.963930
  H      5.549570    0.444570    4.980630
  N      9.255380    0.000160    5.824580
  C      9.729770    0.000670    7.207160
  C     11.266380    0.000310    7.145460
  O     11.894270   -0.000290    6.087030
  C      9.208310   -1.224210    7.976590
  C      9.219510   -1.035460    9.476040
  C     10.202490   -1.640060   10.270610
  C     10.215720   -1.437870   11.651440
  C      9.243120   -0.638930   12.250210
  C      8.255840   -0.040840   11.469540
  C      8.244130   -0.235950   10.088340
  H      9.915900   -0.279920    5.104310
  H      9.398690    0.939630    7.667620
  H      9.789060   -2.117280    7.709840
  H      8.175580   -1.453190    7.681400
  H     10.966010   -2.271140    9.820140
  H     10.981060   -1.909800   12.262470
  H      9.248770   -0.488960   13.326790
  H      7.489940    0.573540   11.936300
  H      7.463460    0.233360    9.489940
  N     11.982400    0.000650    8.278120
  C     13.441480    0.000090    8.219540
  C     13.941870    0.000680    9.676820
  O     13.186000    0.001460   10.647010
  C     13.983630    1.178400    7.368880
  C     15.509770    1.080930    7.165410
  C     16.033300    1.991080    6.061510
  H     13.744240   -0.948530    7.757520
  C     13.582380    2.543350    7.946030
  H     15.777870    0.049590    6.906290
  H     16.035350    1.327240    8.095130
  H     15.886720    3.047370    6.303380
  H     15.535630    1.779710    5.109940
  H     17.107570    1.830630    5.923380
  H     11.552880    0.391350    9.112080
  H     13.514820    1.102790    6.377910
  H     13.853120    3.354940    7.263680
  H     14.073490    2.734750    8.905400
  H     12.500250    2.608700    8.098680
  N     15.257030    0.000330    9.933630
  C     15.732850    0.001120   11.319370
  C     17.271430    0.000450   11.235550
  O     17.881330   -0.000540   10.165470
  C     15.230110   -1.229750   12.073150
  H     14.151310   -1.356380   11.921090
  H     15.725910   -2.136350   11.705000
  C     15.460350   -1.123490   13.561970
  O     15.942820   -0.147360   14.125700
  N     15.114670   -2.238600   14.266410
  H     14.648370   -3.032400   13.848420
  H     15.223400   -2.219260   15.272680
  H     15.397650    0.933130   11.789820
  H     15.943210   -0.203730    9.210600
  N     18.003560    0.000940   12.357860
  C     19.463060    0.000090   12.278350
  C     19.983350    0.000960   13.725860
  O     19.237510    0.002140   14.704690
  C     19.980400    1.223940   11.504180
  H     19.316230    1.455700   10.660830
  H     19.957120    2.116860   12.143020
  C     21.371200    1.030880   10.944510
  C     22.481210    1.630150   11.554940
  H     22.357950    2.260870   12.433080
  C     23.762970    1.420750   11.044990
  H     24.623940    1.882900   11.519690
  C     23.935880    0.624190    9.919350
  C     22.846590    0.029000    9.292900
  H     22.971360   -0.589610    8.409560
  C     21.564680    0.231250    9.807580
  H     20.711550   -0.233820    9.313710
  O     25.205450    0.450010    9.454380
  H     25.166370   -0.076850    8.639110
  H     19.764480   -0.939610   11.799440
  H     17.584360    0.271940   13.243670
  N     21.302050    0.000430   13.963830
  C     21.795460    0.001480   15.336520
  C     23.330170    0.000510   15.247640
  O     23.943450   -0.000870   14.182260
  C     21.275260   -1.225980   16.097130
  C     21.452890   -1.094690   17.608470
  S     20.745740   -2.548640   18.448220
  C     21.002880   -2.027850   20.160940
  H     21.461610    0.927870   15.818890
  H     21.788140   -2.127500   15.734940
  H     20.208530   -1.359140   15.872610
  H     20.944550   -0.194830   17.970120
  H     22.510960   -1.033170   17.874900
  H     22.066710   -1.869090   20.355480
  H     20.638890   -2.808910   20.833640
  H     20.449410   -1.107680   20.365440
  H     21.881540   -0.444540   13.257510
  N     24.066140    0.001170   16.367440
  C     25.527930    0.000030   16.282790
  C     26.037380    0.001210   17.737560
  O     25.283630    0.002790   18.709970
  C     26.038300    1.225030   15.525170
  C     27.448050    1.024960   15.049620
  O     28.194470    0.098700   15.323710
  O     27.872000    2.045300   14.279770
  H     25.832010   -0.937290   15.801460
  H     26.007070    2.118460   16.159110
  H     25.420910    1.407680   14.638020
  H     23.653660    0.201370   17.275950
  O     27.377000    0.000430   17.912550

----------------------------
CARTESIAN COORDINATES (A.U.)
----------------------------
  NO LB      ZA    FRAG     MASS         X           Y           Z
   0 N     7.0000    0    14.007    0.000000    0.000000    0.000000
   1 C     6.0000    0    12.011    2.761740    0.000000    0.000000
   2 C     6.0000    0    12.011    3.680695    0.000000    2.751725
   3 O     8.0000    0    15.999    2.237927    0.000000    4.572117
   4 C     6.0000    0    12.011    3.862808    2.274021   -1.452784
   5 H     1.0000    0     1.008    4.977180    3.496069   -0.202257
   6 H     1.0000    0     1.008    2.350574    3.473827   -2.213096
   7 C     6.0000    0    12.011    5.491714    1.444771   -3.597982
   8 N     7.0000    0    14.007    4.542637    0.175858   -5.659295
   9 C     6.0000    0    12.011    6.528116   -0.356459   -7.216297
  10 H     1.0000    0     1.008    6.301197   -1.381673   -8.970114
  11 N     7.0000    0    14.007    8.664489    0.519864   -6.302974
  12 C     6.0000    0    12.011    8.039405    1.672162   -4.071075
  13 H     1.0000    0     1.008    9.462785    2.585920   -2.919835
  14 H     1.0000    0     1.008    2.705937   -0.333650   -5.921362
  15 H     1.0000    0     1.008   -0.875378    0.253809    1.692647
  16 H     1.0000    0     1.008    3.346270   -1.809999   -0.829495
  17 H     1.0000    0     1.008   -0.642507    0.158378   -1.810377
  18 H     1.0000    0     1.008   -0.642507    1.789684   -0.315565
  19 N     7.0000    0    14.007    6.161811   -0.000000    3.258001
  20 C     6.0000    0    12.011    7.038285    0.000416    5.882528
  21 C     6.0000    0    12.011    9.948369    0.000302    5.756427
  22 O     8.0000    0    15.999   11.126216   -0.000094    3.751881
  23 C     6.0000    0    12.011    6.068270   -2.316426    7.307325
  24 C     6.0000    0    12.011    6.222018   -1.940768   10.114986
  25 O     8.0000    0    15.999    7.225179   -0.190692   11.234157
  26 O     8.0000    0    15.999    5.169686   -3.870802   11.397033
  27 H     1.0000    0     1.008    6.405661    1.770484    6.755223
  28 H     1.0000    0     1.008    7.159964   -4.003593    6.806472
  29 H     1.0000    0     1.008    4.078785   -2.662549    6.845684
  30 H     1.0000    0     1.008    7.467102   -0.376207    1.896775
  31 N     7.0000    0    14.007   11.308235    0.000605    7.892536
  32 C     6.0000    0    12.011   14.062132    0.000076    7.773181
  33 C     6.0000    0    12.011   15.004955    0.000643   10.520994
  34 O     8.0000    0    15.999   13.580460    0.001380   12.356012
  35 C     6.0000    0    12.011   15.019052    2.321018    6.320529
  36 C     6.0000    0    12.011   17.789579    2.074787    5.549521
  37 S    16.0000    0    32.060   18.750921    4.823998    3.713539
  38 C     6.0000    0    12.011   21.930933    3.841908    2.937031
  39 H     1.0000    0     1.008   14.667771   -1.749660    6.843001
  40 H     1.0000    0     1.008   14.751750    4.023794    7.477816
  41 H     1.0000    0     1.008   13.862880    2.573164    4.615656
  42 H     1.0000    0     1.008   18.059187    0.375148    4.400567
  43 H     1.0000    0     1.008   19.012799    1.958096    7.209343
  44 H     1.0000    0     1.008   23.032625    3.541366    4.658251
  45 H     1.0000    0     1.008   22.846298    5.319069    1.819957
  46 H     1.0000    0     1.008   21.893403    2.103738    1.821564
  47 H     1.0000    0     1.008   10.487167    0.840116    9.412027
  48 N     7.0000    0    14.007   17.490133    0.000302   11.006861
  49 C     6.0000    0    12.011   18.386601    0.001266   13.619559
  50 C     6.0000    0    12.011   21.290373    0.000586   13.502963
  51 O     8.0000    0    15.999   22.476913   -0.000548   11.502820
  52 C     6.0000    0    12.011   17.401184   -2.313422   15.073571
  53 C     6.0000    0    12.011   17.422349   -1.956736   17.907120
  54 C     6.0000    0    12.011   19.279912   -3.099264   19.408640
  55 C     6.0000    0    12.011   19.304913   -2.717181   22.018031
  56 C     6.0000    0    12.011   17.466965   -1.207403   23.149542
  57 C     6.0000    0    12.011   15.601277   -0.077176   21.674289
  58 C     6.0000    0    12.011   15.579148   -0.445881   19.064200
  59 H     1.0000    0     1.008   18.738335   -0.528972    9.645748
  60 H     1.0000    0     1.008   17.760950    1.775643   14.489702
  61 H     1.0000    0     1.008   18.498643   -4.001079   14.569486
  62 H     1.0000    0     1.008   15.449607   -2.746131   14.515742
  63 H     1.0000    0     1.008   20.722756   -4.291833   18.557375
  64 H     1.0000    0     1.008   20.751196   -3.608999   23.172710
  65 H     1.0000    0     1.008   17.477642   -0.924000   25.183983
  66 H     1.0000    0     1.008   14.153935    1.083834   22.556338
  67 H     1.0000    0     1.008   14.103895    0.440986   17.933388
  68 N     7.0000    0    14.007   22.643454    0.001228   15.643380
  69 C     6.0000    0    12.011   25.400716    0.000170   15.532680
  70 C     6.0000    0    12.011   26.346316    0.001285   18.286540
  71 O     8.0000    0    15.999   24.917929    0.002759   20.119933
  72 C     6.0000    0    12.011   26.425231    2.226853   13.925165
  73 C     6.0000    0    12.011   29.309218    2.042662   13.540663
  74 C     6.0000    0    12.011   30.298546    3.762596   11.454594
  75 H     1.0000    0     1.008   25.972850   -1.792462   14.659588
  76 C     6.0000    0    12.011   25.666978    4.806235   15.015821
  77 H     1.0000    0     1.008   29.815853    0.093712   13.050997
  78 H     1.0000    0     1.008   30.302420    2.508120   15.297579
  79 H     1.0000    0     1.008   30.021550    5.758695   11.911662
  80 H     1.0000    0     1.008   29.358086    3.363164    9.656387
  81 H     1.0000    0     1.008   32.328622    3.459389   11.193566
  82 H     1.0000    0     1.008   21.831779    0.739544   17.219336
  83 H     1.0000    0     1.008   25.539309    2.083971   12.052503
  84 H     1.0000    0     1.008   26.178603    6.339918   13.726366
  85 H     1.0000    0     1.008   26.595042    5.167929   16.828767
  86 H     1.0000    0     1.008   23.622049    4.929729   15.304287
  87 N     7.0000    0    14.007   28.831608    0.000624   18.771840
  88 C     6.0000    0    12.011   29.730778    0.002116   21.390509
  89 C     6.0000    0    12.011   32.638273    0.000850   21.232112
  90 O     8.0000    0    15.999   33.790817   -0.001020   19.209954
  91 C     6.0000    0    12.011   28.780737   -2.323891   22.814947
  92 H     1.0000    0     1.008   26.742100   -2.563187   22.527595
  93 H     1.0000    0     1.008   29.717663   -4.037116   22.119244
  94 C     6.0000    0    12.011   29.215827   -2.123088   25.628409
  95 O     8.0000    0    15.999   30.127564   -0.278470   26.693704
  96 N     7.0000    0    14.007   28.562587   -4.230341   26.959608
  97 H     1.0000    0     1.008   27.681408   -5.730406   26.169721
  98 H     1.0000    0     1.008   28.768057   -4.193794   28.861183
  99 H     1.0000    0     1.008   29.097342    1.763360   22.279531
 100 H     1.0000    0     1.008   30.128301   -0.384994   17.405512
 101 N     7.0000    0    14.007   34.021798    0.001776   23.352971
 102 C     6.0000    0    12.011   36.779853    0.000170   23.202719
 103 C     6.0000    0    12.011   37.763059    0.001814   25.938116
 104 O     8.0000    0    15.999   36.353625    0.004044   27.787837
 105 C     6.0000    0    12.011   37.757484    2.312911   21.739750
 106 H     1.0000    0     1.008   36.502385    2.750874   20.146049
 107 H     1.0000    0     1.008   37.713491    4.000286   22.946982
 108 C     6.0000    0    12.011   40.385715    1.948081   20.682127
 109 C     6.0000    0    12.011   42.483330    3.080537   21.835672
 110 H     1.0000    0     1.008   42.250402    4.272425   23.495116
 111 C     6.0000    0    12.011   44.905505    2.684828   20.872006
 112 H     1.0000    0     1.008   46.532503    3.558165   21.769059
 113 C     6.0000    0    12.011   45.232258    1.179548   18.744855
 114 C     6.0000    0    12.011   43.173798    0.054802   17.561036
 115 H     1.0000    0     1.008   43.409579   -1.114201   15.891765
 116 C     6.0000    0    12.011   40.751339    0.436999   18.533640
 117 H     1.0000    0     1.008   39.139157   -0.441856   17.600361
 118 O     8.0000    0    15.999   47.631398    0.850396   17.866189
 119 H     1.0000    0     1.008   47.557547   -0.145225   16.325552
 120 H     1.0000    0     1.008   37.349454   -1.775606   22.297710
 121 H     1.0000    0     1.008   33.229625    0.513892   25.026909
 122 N     7.0000    0    14.007   40.255041    0.000813   26.387814
 123 C     6.0000    0    12.011   41.187450    0.002797   28.981823
 124 C     6.0000    0    12.011   44.087632    0.000964   28.813864
 125 O     8.0000    0    15.999   45.246563   -0.001644   26.800587
 126 C     6.0000    0    12.011   40.204415   -2.316766   30.419167
 127 C     6.0000    0    12.011   40.540087   -2.068664   33.275186
 128 S    16.0000    0    32.060   39.203767   -4.816232   34.862083
 129 C     6.0000    0    12.011   39.689691   -3.832081   38.098655
 130 H     1.0000    0     1.008   40.556565    1.753420   29.893370
 131 H     1.0000    0     1.008   41.173618   -4.020392   29.734727
 132 H     1.0000    0     1.008   38.188587   -2.568402   29.994886
 133 H     1.0000    0     1.008   39.579463   -0.368175   33.958605
 134 H     1.0000    0     1.008   42.539549   -1.952408   33.778666
 135 H     1.0000    0     1.008   41.700039   -3.532068   38.466283
 136 H     1.0000    0     1.008   39.001850   -5.308071   39.369874
 137 H     1.0000    0     1.008   38.643785   -2.093212   38.485104
 138 H     1.0000    0     1.008   41.350118   -0.840059   25.053063
 139 N     7.0000    0    14.007   45.478414    0.002211   30.929979
 140 C     6.0000    0    12.011   48.240796    0.000057   30.770014
 141 C     6.0000    0    12.011   49.203517    0.002287   33.519131
 142 O     8.0000    0    15.999   47.779136    0.005272   35.356719
 143 C     6.0000    0    12.011   49.205256    2.314971   29.338319
 144 C     6.0000    0    12.011   51.869297    1.936894   28.439660
 145 O     8.0000    0    15.999   53.279827    0.186516   28.957615
 146 O     8.0000    0    15.999   52.670447    3.865057   26.984855
 147 H     1.0000    0     1.008   48.815424   -1.771221   29.860432
 148 H     1.0000    0     1.008   49.146240    4.003309   30.536292
 149 H     1.0000    0     1.008   48.038558    2.660130   27.661849
 150 H     1.0000    0     1.008   44.698939    0.380534   32.646814
 151 O     8.0000    0    15.999   51.735032    0.000813   33.849814

--------------------------------
INTERNAL COORDINATES (ANGSTROEM)
--------------------------------
 N      0   0   0     0.000000000000     0.00000000     0.00000000
 C      1   0   0     1.461450000000     0.00000000     0.00000000
 C      2   1   0     1.535203825751   108.46705034     0.00000000
 O      3   2   1     1.229173651890   123.13404915     0.00000000
 C      2   1   3     1.542268022621   112.19712055   237.42706994
 H      5   2   1     1.097202886845   111.24028393   117.65762040
 H      5   2   1     1.097894458179   111.00952425     0.15449122
 C      5   2   1     1.491384876181   111.60442919   239.34855475
 N      8   5   2     1.375850647163   122.41774934    65.86697841
 C      9   8   5     1.364594207045   107.36071879   181.64955907
 H     10   9   8     1.081702197095   122.41863490   178.92627196
 N     10   9   8     1.314043203019   111.56098054   359.06026605
 C     12  10   9     1.369730340688   105.45507388   359.80727685
 H     13  12  10     1.082722551765   121.06297386   180.67549538
 H      9   8   5     1.018132825519   125.85277034   359.16782239
 H      1   2   3     1.017309005711   117.08735136     8.52785658
 H      2   1   3     1.098069196818   106.36136092   114.62127838
 H      1   2   3     1.020003566758   109.47114980   175.00029763
 H      1   2   3     1.020004070433   109.47113980    99.99986914
 N      3   2   1     1.340005026334   120.00003797   180.00000000
 C     20   3   2     1.464239157412   119.99998478   179.99005963
 C     21  20   3     1.541395114499   105.98577550   180.00018402
 O     22  21  20     1.230326072958   122.91921140     0.00000000
 C     21  20   3     1.528097823243   111.19067405    59.38459087
 C     24  21  20     1.501196181783   111.33856568   198.32949161
 O     25  24  21     1.220742048960   127.17008659   352.12444367
 O     25  24  21     1.346657503117   112.07144347   174.51868405
 H     21  20   3     1.096680833880   107.62882966   296.34930804
 H     24  21  20     1.095943971059   110.92926266    77.28637544
 H     24  21  20     1.096171507475   110.28690885   317.13058798
 H     20   3   2     1.017652243254   121.56903457   346.72611378
 N     22  21  20     1.339999075410   119.99997240   180.00040653
 C     32  22  21     1.458668075334   119.99952177   179.98987574
 C     33  32  22     1.537293043892   106.45630805   179.99934186
 O     34  33  32     1.229295640072   123.24042404     0.00000000
 C     33  32  22     1.534857141430   110.55723966    58.73984088
 C     36  33  32     1.527380535427   112.47025009   194.84553543
 S     37  36  33     1.821874338257   110.02037778   177.39335242
 C     38  37  36     1.808512455639    98.71470830   183.97735863
 H     33  32  22     1.096509032977   108.15614145   297.31532925
 H     36  33  32     1.098626986515   109.55101514    72.15175823
 H     36  33  32     1.098205823013   108.95703258   315.82403245
 H     37  36  33     1.094968984492   110.08822971    57.40813724
 H     37  36  33     1.092836450756   111.01876205   296.83687030
 H     39  38  37     1.093061000402   110.41148599   300.09096043
 H     39  38  37     1.093202621384   109.24899048   180.77177425
 H     39  38  37     1.093095118460   110.34027086    61.53801455
 H     32  22  21     1.016210740447   115.97117964   330.91466144
 N     34  33  32     1.339997609886   120.00011705   179.99942818
 C     49  34  33     1.461702291371   120.00022133   179.98982726
 C     50  49  34     1.537848273303   106.63870107   180.00045606
 O     51  50  49     1.230658472932   122.97697537     0.00000000
 C     50  49  34     1.537619611900   111.28292714    58.78563330
 C     53  50  49     1.511324685499   113.23290249   201.30840994
 C     54  53  50     1.401118241013   120.92720500   256.28724767
 C     55  54  53     1.395617181716   120.34620140   178.83066352
 C     56  55  54     1.393836933253   120.09658170     0.45037696
 C     57  56  55     1.393513220389   119.98159737     0.00000000
 C     58  57  56     1.394961818904   120.04017710   359.68888105
 H     49  34  33     1.016622028927   120.11546400   341.45031641
 H     50  49  34     1.096942687473   107.42087890   296.25136960
 H     53  50  49     1.098180381313   110.29965091    77.82335908
 H     53  50  49     1.098225946425   110.51787235   321.89733164
 H     55  54  53     1.088185635680   120.51369446   358.94916722
 H     56  55  54     1.087115863834   119.99283518   179.99881253
 H     57  56  55     1.086990073460   120.06124864   179.45926114
 H     58  57  56     1.087166266953   120.07586115   179.31378552
 H     59  58  57     1.089853240120   119.30322912   179.68935228
 N     51  50  49     1.340001280447   119.99996533   180.00034247
 C     69  51  50     1.460255585985   120.00023231   179.99011554
 C     70  69  51     1.540797033551   106.65194536   180.00000000
 O     71  70  69     1.229881580234   123.12696841     0.00000000
 C     70  69  51     1.551116860266   111.77422480    54.93139542
 C     73  70  69     1.542726074648   111.72179765   186.89095460
 C     74  73  70     1.523499882967   113.43837537   165.20804097
 H     70  69  51     1.097727654020   107.02565771   295.38623149
 C     73  70  69     1.535315012465   112.20072895    61.00919927
 H     74  73  70     1.096669038498   109.41565077    44.73474557
 H     74  73  70     1.096030214410   110.38333989   287.08126666
 H     75  74  73     1.093496848372   111.76169058    64.24354738
 H     75  74  73     1.094457934642   110.99887670   302.91877392
 H     75  74  73     1.094933848367   109.93882840   183.55429217
 H     69  51  50     1.016180693578   117.90041833   334.24408878
 H     73  70  69     1.098872708324   107.04849534   304.18391451
 H     77  73  70     1.094339982912   111.11740087   187.81362204
 H     77  73  70     1.094629521345   111.57152680    67.46873150
 H     77  73  70     1.094795863118   111.33413514   306.58921190
 N     71  70  69     1.339999001567   120.00011342   179.99954917
 C     88  71  70     1.465155501679   119.99991877   179.98966117
 C     89  88  71     1.540861660792   105.83253597   180.00045997
 O     90  89  88     1.231685916336   122.79962875     0.00000000
 C     89  88  71     1.528388940322   111.05081400    59.70562548
 H     92  89  88     1.096798450263   110.37366638   311.14715472
 H     92  89  88     1.096939206383   110.57313576    70.10678191
 C     92  89  88     1.510260453564   112.29501325   191.66910496
 O     95  92  89     1.226131555217   124.69701446     2.84554268
 N     95  92  89     1.363525096249   114.40019958   184.43365372
 H     97  95  92     1.011073573040   123.05271612   353.50354094
 H     97  95  92     1.012311988174   118.07934896   181.56783773
 H     89  88  71     1.096505760404   107.87671225   296.79164149
 H     88  71  70     1.017475236505   121.71927612   346.40639181
 N     90  89  88     1.339997878021   119.99976112   180.00060044
 C    102  90  89     1.461664398075   119.99982619   179.99029389
 C    103 102  90     1.538176726225   106.65208463   179.99963815
 O    104 103 102     1.230604269008   122.92330542     0.00000000
 C    103 102  90     1.537786944606   111.27487517    58.72388091
 H    106 103 102     1.098213872158   110.55423768   322.21990936
 H    106 103 102     1.098164209215   110.31087801    78.16507820
 C    106 103 102     1.511564524756   113.22188101   201.65941297
 C    109 106 103     1.401382002846   120.85725473   256.41702295
 H    110 109 106     1.088177653511   120.64063538   358.85460978
 C    110 109 106     1.395279921772   120.28226733   178.62966706
 H    112 110 109     1.086366445266   120.29798099   180.17453248
 C    112 110 109     1.389773762632   119.75761876     0.60150409
 C    114 112 110     1.390411249487   120.85051294   359.89689117
 H    115 114 112     1.085603721714   121.36521287   179.60793627
 C    115 114 112     1.396099499678   119.42216836   359.70204954
 H    117 115 114     1.089967191570   119.33004992   179.83394047
 O    114 112 110     1.363210826762   117.73369577   179.84507459
 H    119 114 112     0.971480251420   108.54621780   183.56977585
 H    103 102  90     1.096925200048   107.37514860   296.21929504
 H    102  90  89     1.016773817572   120.29859547   342.07315963
 N    104 103 102     1.339999885000   119.99973033   179.99959326
 C    123 104 103     1.458674866686   120.00020894   179.98979598
 C    124 123 104     1.537281815218   106.45633199   180.00010007
 O    125 124 123     1.229287926891   123.24113861     0.00000000
 C    124 123 104     1.534859493146   110.55616707    58.74059034
 C    127 124 123     1.527395848037   112.46944002   194.84556953
 S    128 127 124     1.821870409085   110.01977060   177.39314055
 C    129 128 127     1.808522325574    98.71458702   183.97751198
 H    124 123 104     1.096510406471   108.15579198   297.31664828
 H    127 124 123     1.098619952895   109.55119378    72.15244000
 H    127 124 123     1.098204766380   108.95740213   315.82384736
 H    128 127 124     1.094964975559   110.08797548    57.40866207
 H    128 127 124     1.092831999989   111.01857276   296.83726618
 H    130 129 128     1.093062129113   110.41112311   300.09185149
 H    130 129 128     1.093191993064   109.24887129   180.77184102
 H    130 129 128     1.093097488699   110.33996958    61.53777224
 H    123 104 103     1.016215972813   115.97114287   330.91594812
 N    125 124 123     1.340001610633   119.99974308   180.00022547
 C    140 125 124     1.464239367795   120.00000702   179.99023607
 C    141 140 125     1.541394319375   105.98563338   179.99993486
 O    142 141 140     1.230334412670   122.91958590     0.00000000
 C    141 140 125     1.528100324357   111.19047345    59.38461147
 C    144 141 140     1.501189818078   111.33774007   198.32923251
 O    145 144 141     1.220748021543   127.17119522   352.12417485
 O    145 144 141     1.346661182555   112.07105086   174.51838619
 H    141 140 125     1.096682268344   107.62871473   296.34953829
 H    144 141 140     1.095934487732   110.92926079    77.28720586
 H    144 141 140     1.096159914018   110.28685647   317.13031973
 H    140 125 124     1.017649355377   121.56914438   346.72586246
 O    142 141 140     1.351001055847   116.74205974   179.99982563

---------------------------
INTERNAL COORDINATES (A.U.)
---------------------------
 N      0   0   0     0.000000000000     0.00000000     0.00000000
 C      1   0   0     2.761740258419     0.00000000     0.00000000
 C      2   1   0     2.901114790417   108.46705034     0.00000000
 O      3   2   1     2.322801573103   123.13404915     0.00000000
 C      2   1   3     2.914464187858   112.19712055   237.42706994
 H      5   2   1     2.073412969484   111.24028393   117.65762040
 H      5   2   1     2.074719849908   111.00952425     0.15449122
 C      5   2   1     2.818308976253   111.60442919   239.34855475
 N      8   5   2     2.599980924317   122.41774934    65.86697841
 C      9   8   5     2.578709335250   107.36071879   181.64955907
 H     10   9   8     2.044120910970   122.41863490   178.92627196
 N     10   9   8     2.483181781846   111.56098054   359.06026605
 C     12  10   9     2.588415221222   105.45507388   359.80727685
 H     13  12  10     2.046049101856   121.06297386   180.67549538
 H      9   8   5     1.923992208187   125.85277034   359.16782239
 H      1   2   3     1.922435414365   117.08735136     8.52785658
 H      2   1   3     2.075050058080   106.36136092   114.62127838
 H      1   2   3     1.927527396796   109.47114980   175.00029763
 H      1   2   3     1.927528348603   109.47113980    99.99986914
 N      3   2   1     2.532242517849   120.00003797   180.00000000
 C     20   3   2     2.767011002073   119.99998478   179.99005963
 C     21  20   3     2.912814630566   105.98577550   180.00018402
 O     22  21  20     2.324979333313   122.91921140     0.00000000
 C     21  20   3     2.887686391770   111.19067405    59.38459087
 C     24  21  20     2.836849656858   111.33856568   198.32949161
 O     25  24  21     2.306868152697   127.17008659   352.12444367
 O     25  24  21     2.544813877080   112.07144347   174.51868405
 H     21  20   3     2.072426432354   107.62882966   296.34930804
 H     24  21  20     2.071033963423   110.92926266    77.28637544
 H     24  21  20     2.071463944935   110.28690885   317.13058798
 H     20   3   2     1.923084039321   121.56903457   346.72611378
 N     22  21  20     2.532231272233   119.99997240   180.00040653
 C     32  22  21     2.756483182676   119.99952177   179.98987574
 C     33  32  22     2.905062840539   106.45630805   179.99934186
 O     34  33  32     2.323032097359   123.24042404     0.00000000
 C     33  32  22     2.900459651997   110.55723966    58.73984088
 C     36  33  32     2.886330914238   112.47025009   194.84553543
 S     37  36  33     3.442843549725   110.02037778   177.39335242
 C     38  37  36     3.417593250942    98.71470830   183.97735863
 H     33  32  22     2.072101775697   108.15614145   297.31532925
 H     36  33  32     2.076104127849   109.55101514    72.15175823
 H     36  33  32     2.075308244172   108.95703258   315.82403245
 H     37  36  33     2.069191505828   110.08822971    57.40813724
 H     37  36  33     2.065161601095   111.01876205   296.83687030
 H     39  38  37     2.065585938430   110.41148599   300.09096043
 H     39  38  37     2.065853563300   109.24899048   180.77177425
 H     39  38  37     2.065650412215   110.34027086    61.53801455
 H     32  22  21     1.920359993794   115.97117964   330.91466144
 N     34  33  32     2.532228502793   120.00011705   179.99942818
 C     49  34  33     2.762217020017   120.00022133   179.98982726
 C     50  49  34     2.906112072066   106.63870107   180.00045606
 O     51  50  49     2.325607478232   122.97697537     0.00000000
 C     50  49  34     2.905679964638   111.28292714    58.78563330
 C     53  50  49     2.855989755029   113.23290249   201.30840994
 C     54  53  50     2.647729756756   120.92720500   256.28724767
 C     55  54  53     2.637334261238   120.34620140   178.83066352
 C     56  55  54     2.633970079193   120.09658170     0.45037696
 C     57  56  55     2.633358350535   119.98159737     0.00000000
 C     58  57  56     2.636095805005   120.04017710   359.68888105
 H     49  34  33     1.921137216384   120.11546400   341.45031641
 H     50  49  34     2.072921263931   107.42087890   296.25136960
 H     53  50  49     2.075260166326   110.29965091    77.82335908
 H     53  50  49     2.075346271909   110.51787235   321.89733164
 H     55  54  53     2.056372834302   120.51369446   358.94916722
 H     56  55  54     2.054351258488   119.99283518   179.99881253
 H     57  56  55     2.054113549130   120.06124864   179.45926114
 H     58  57  56     2.054446506578   120.07586115   179.31378552
 H     59  58  57     2.059524149993   119.30322912   179.68935228
 N     51  50  49     2.532235439149   119.99996533   180.00034247
 C     69  51  50     2.759483143040   120.00023231   179.99011554
 C     70  69  51     2.911684421370   106.65194536   180.00000000
 O     71  70  69     2.324139363797   123.12696841     0.00000000
 C     70  69  51     2.931186067610   111.77422480    54.93139542
 C     73  70  69     2.915329780745   111.72179765   186.89095460
 C     74  73  70     2.878997543868   113.43837537   165.20804097
 H     70  69  51     2.074404635729   107.02565771   295.38623149
 C     73  70  69     2.901324902856   112.20072895    61.00919927
 H     74  73  70     2.072404142312   109.41565077    44.73474557
 H     74  73  70     2.071196939738   110.38333989   287.08126666
 H     75  74  73     2.066409571730   111.76169058    64.24354738
 H     75  74  73     2.068225761570   110.99887670   302.91877392
 H     75  74  73     2.069125108174   109.93882840   183.55429217
 H     69  51  50     1.920303213440   117.90041833   334.24408878
 H     73  70  69     2.076568474773   107.04849534   304.18391451
 H     77  73  70     2.068002865104   111.11740087   187.81362204
 H     77  73  70     2.068550013447   111.57152680    67.46873150
 H     77  73  70     2.068864353843   111.33413514   306.58921190
 N     71  70  69     2.532231132689   120.00011342   179.99954917
 C     88  71  70     2.768742641781   119.99991877   179.98966117
 C     89  88  71     2.911806549157   105.83253597   180.00045997
 O     90  89  88     2.327549064883   122.79962875     0.00000000
 C     89  88  71     2.888236523324   111.05081400    59.70562548
 H     92  89  88     2.072648695107   110.37366638   311.14715472
 H     92  89  88     2.072914685625   110.57313576    70.10678191
 C     92  89  88     2.853978648128   112.29501325   191.66910496
 O     95  92  89     2.317052843520   124.69701446     2.84554268
 N     95  92  89     2.576689008639   114.40019958   184.43365372
 H     97  95  92     1.910652154291   123.05271612   353.50354094
 H     97  95  92     1.912992419733   118.07934896   181.56783773
 H     89  88  71     2.072095591431   107.87671225   296.79164149
 H     88  71  70     1.922749545040   121.71927612   346.40639181
 N     90  89  88     2.532229009495   119.99976112   180.00060044
 C    102  90  89     2.762145412065   119.99982619   179.99029389
 C    103 102  90     2.906732758137   106.65208463   179.99963815
 O    104 103 102     2.325505047659   122.92330542     0.00000000
 C    103 102  90     2.905996177624   111.27487517    58.72388091
 H    106 103 102     2.075323454852   110.55423768   322.21990936
 H    106 103 102     2.075229605490   110.31087801    78.16507820
 C    106 103 102     2.856442985539   113.22188101   201.65941297
 C    109 106 103     2.648228194385   120.85725473   256.41702295
 H    110 109 106     2.056357750188   120.64063538   358.85460978
 C    110 109 106     2.636696932308   120.28226733   178.62966706
 H    112 110 109     2.052935062634   120.29798099   180.17453248
 C    112 110 109     2.626291799484   119.75761876     0.60150409
 C    114 112 110     2.627496475054   120.85051294   359.89689117
 H    115 114 112     2.051493724006   121.36521287   179.60793627
 C    115 114 112     2.638245710095   119.42216836   359.70204954
 H    117 115 114     2.059739487027   119.33004992   179.83394047
 O    114 112 110     2.576095125376   117.73369577   179.84507459
 H    119 114 112     1.835831619698   108.54621780   183.56977585
 H    103 102  90     2.072888217487   107.37514860   296.21929504
 H    102  90  89     1.921424055353   120.29859547   342.07315963
 N    104 103 102     2.532232802136   119.99973033   179.99959326
 C    123 104 103     2.756496016470   120.00020894   179.98979598
 C    124 123 104     2.905041621419   106.45633199   180.00010007
 O    125 124 123     2.323017521560   123.24113861     0.00000000
 C    124 123 104     2.900464096095   110.55616707    58.74059034
 C    127 124 123     2.886359850878   112.46944002   194.84556953
 S    128 127 124     3.442836124666   110.01977060   177.39314055
 C    129 128 127     3.417611902417    98.71458702   183.97751198
 H    124 123 104     2.072104371226   108.15579198   297.31664828
 H    127 124 123     2.076090836234   109.55119378    72.15244000
 H    127 124 123     2.075306247425   108.95740213   315.82384736
 H    128 127 124     2.069183930041   110.08797548    57.40866207
 H    128 127 124     2.065153190365   111.01857276   296.83726618
 H    130 129 128     2.065588071384   110.41112311   300.09185149
 H    130 129 128     2.065833478687   109.24887129   180.77184102
 H    130 129 128     2.065654891318   110.33996958    61.53777224
 H    123 104 103     1.920369881533   115.97114287   330.91594812
 N    125 124 123     2.532236063110   119.99974308   180.00022547
 C    140 125 124     2.767011399638   120.00000702   179.99023607
 C    141 140 125     2.912813128000   105.98563338   179.99993486
 O    142 141 140     2.324995093085   122.91958590     0.00000000
 C    141 140 125     2.887691118191   111.19047345    59.38461147
 C    144 141 140     2.836837631198   111.33774007   198.32923251
 O    145 144 141     2.306879439242   127.17119522   352.12417485
 O    145 144 141     2.544820830211   112.07105086   174.51838619
 H    141 140 125     2.072429143098   107.62871473   296.34953829
 H    144 141 140     2.071016042532   110.92926079    77.28720586
 H    144 141 140     2.071442036477   110.28685647   317.13031973
 H    140 125 124     1.923078582025   121.56914438   346.72586246
 O    142 141 140     2.553022002189   116.74205974   179.99982563

---------------------
BASIS SET INFORMATION
---------------------
There are 5 groups of distinct atoms

 Group   1 Type N   : 6s3p contracted to 2s1p pattern {33/3}
 Group   2 Type C   : 6s3p contracted to 2s1p pattern {33/3}
 Group   3 Type O   : 6s3p contracted to 2s1p pattern {33/3}
 Group   4 Type H   : 3s contracted to 1s pattern {3}
 Group   5 Type S   : 9s6p1d contracted to 3s2p1d pattern {333/33/1}

Atom   0N    basis set group =>   1
Atom   1C    basis set group =>   2
Atom   2C    basis set group =>   2
Atom   3O    basis set group =>   3
Atom   4C    basis set group =>   2
Atom   5H    basis set group =>   4
Atom   6H    basis set group =>   4
Atom   7C    basis set group =>   2
Atom   8N    basis set group =>   1
Atom   9C    basis set group =>   2
Atom  10H    basis set group =>   4
Atom  11N    basis set group =>   1
Atom  12C    basis set group =>   2
Atom  13H    basis set group =>   4
Atom  14H    basis set group =>   4
Atom  15H    basis set group =>   4
Atom  16H    basis set group =>   4
Atom  17H    basis set group =>   4
Atom  18H    basis set group =>   4
Atom  19N    basis set group =>   1
Atom  20C    basis set group =>   2
Atom  21C    basis set group =>   2
Atom  22O    basis set group =>   3
Atom  23C    basis set group =>   2
Atom  24C    basis set group =>   2
Atom  25O    basis set group =>   3
Atom  26O    basis set group =>   3
Atom  27H    basis set group =>   4
Atom  28H    basis set group =>   4
Atom  29H    basis set group =>   4
Atom  30H    basis set group =>   4
Atom  31N    basis set group =>   1
Atom  32C    basis set group =>   2
Atom  33C    basis set group =>   2
Atom  34O    basis set group =>   3
Atom  35C    basis set group =>   2
Atom  36C    basis set group =>   2
Atom  37S    basis set group =>   5
Atom  38C    basis set group =>   2
Atom  39H    basis set group =>   4
Atom  40H    basis set group =>   4
Atom  41H    basis set group =>   4
Atom  42H    basis set group =>   4
Atom  43H    basis set group =>   4
Atom  44H    basis set group =>   4
Atom  45H    basis set group =>   4
Atom  46H    basis set group =>   4
Atom  47H    basis set group =>   4
Atom  48N    basis set group =>   1
Atom  49C    basis set group =>   2
Atom  50C    basis set group =>   2
Atom  51O    basis set group =>   3
Atom  52C    basis set group =>   2
Atom  53C    basis set group =>   2
Atom  54C    basis set group =>   2
Atom  55C    basis set group =>   2
Atom  56C    basis set group =>   2
Atom  57C    basis set group =>   2
Atom  58C    basis set group =>   2
Atom  59H    basis set group =>   4
Atom  60H    basis set group =>   4
Atom  61H    basis set group =>   4
Atom  62H    basis set group =>   4
Atom  63H    basis set group =>   4
Atom  64H    basis set group =>   4
Atom  65H    basis set group =>   4
Atom  66H    basis set group =>   4
Atom  67H    basis set group =>   4
Atom  68N    basis set group =>   1
Atom  69C    basis set group =>   2
Atom  70C    basis set group =>   2
Atom  71O    basis set group =>   3
Atom  72C    basis set group =>   2
Atom  73C    basis set group =>   2
Atom  74C    basis set group =>   2
Atom  75H    basis set group =>   4
Atom  76C    basis set group =>   2
Atom  77H    basis set group =>   4
Atom  78H    basis set group =>   4
Atom  79H    basis set group =>   4
Atom  80H    basis set group =>   4
Atom  81H    basis set group =>   4
Atom  82H    basis set group =>   4
Atom  83H    basis set group =>   4
Atom  84H    basis set group =>   4
Atom  85H    basis set group =>   4
Atom  86H    basis set group =>   4
Atom  87N    basis set group =>   1
Atom  88C    basis set group =>   2
Atom  89C    basis set group =>   2
Atom  90O    basis set group =>   3
Atom  91C    basis set group =>   2
Atom  92H    basis set group =>   4
Atom  93H    basis set group =>   4
Atom  94C    basis set group =>   2
Atom  95O    basis set group =>   3
Atom  96N    basis set group =>   1
Atom  97H    basis set group =>   4
Atom  98H    basis set group =>   4
Atom  99H    basis set group =>   4
Atom 100H    basis set group =>   4
Atom 101N    basis set group =>   1
Atom 102C    basis set group =>   2
Atom 103C    basis set group =>   2
Atom 104O    basis set group =>   3
Atom 105C    basis set group =>   2
Atom 106H    basis set group =>   4
Atom 107H    basis set group =>   4
Atom 108C    basis set group =>   2
Atom 109C    basis set group =>   2
Atom 110H    basis set group =>   4
Atom 111C    basis set group =>   2
Atom 112H    basis set group =>   4
Atom 113C    basis set group =>   2
Atom 114C    basis set group =>   2
Atom 115H    basis set group =>   4
Atom 116C    basis set group =>   2
Atom 117H    basis set group =>   4
Atom 118O    basis set group =>   3
Atom 119H    basis set group =>   4
Atom 120H    basis set group =>   4
Atom 121H    basis set group =>   4
Atom 122N    basis set group =>   1
Atom 123C    basis set group =>   2
Atom 124C    basis set group =>   2
Atom 125O    basis set group =>   3
Atom 126C    basis set group =>   2
Atom 127C    basis set group =>   2
Atom 128S    basis set group =>   5
Atom 129C    basis set group =>   2
Atom 130H    basis set group =>   4
Atom 131H    basis set group =>   4
Atom 132H    basis set group =>   4
Atom 133H    basis set group =>   4
Atom 134H    basis set group =>   4
Atom 135H    basis set group =>   4
Atom 136H    basis set group =>   4
Atom 137H    basis set group =>   4
Atom 138H    basis set group =>   4
Atom 139N    basis set group =>   1
Atom 140C    basis set group =>   2
Atom 141C    basis set group =>   2
Atom 142O    basis set group =>   3
Atom 143C    basis set group =>   2
Atom 144C    basis set group =>   2
Atom 145O    basis set group =>   3
Atom 146O    basis set group =>   3
Atom 147H    basis set group =>   4
Atom 148H    basis set group =>   4
Atom 149H    basis set group =>   4
Atom 150H    basis set group =>   4
Atom 151O    basis set group =>   3


           ************************************************************
           *        Program running with 15 parallel MPI-processes    *
           *              working on a common directory               *
           ************************************************************
------------------------------------------------------------------------------
                           ORCA GTO INTEGRAL CALCULATION
------------------------------------------------------------------------------

                         BASIS SET STATISTICS AND STARTUP INFO

 # of primitive gaussian shells          ...  962
 # of primitive gaussian functions       ... 1474
 # of contracted shells                  ...  322
 # of contracted basis functions         ...  498
 Highest angular momentum                ...    2
 Maximum contraction depth               ...    3
 Integral package used                   ... LIBINT
 Integral threshhold            Thresh   ...  1.000e-10
 Primitive cut-off              TCut     ...  1.000e-11


------------------------------ INTEGRAL EVALUATION ----------------------------


 * One electron integrals 
 Pre-screening matrix                    ... done
 Shell pair data                         ... done (   0.011 sec)



           ************************************************************
           *        Program running with 15 parallel MPI-processes    *
           *              working on a common directory               *
           ************************************************************
-------------------------------------------------------------------------------
                                 ORCA SCF
-------------------------------------------------------------------------------

------------
SCF SETTINGS
------------
Hamiltonian:
 Ab initio Hamiltonian  Method          .... Hartree-Fock(GTOs)


General Settings:
 Integral files         IntName         .... HDMFINYMD
 Hartree-Fock type      HFTyp           .... RHF
 Total Charge           Charge          ....    0
 Multiplicity           Mult            ....    1
 Number of Electrons    NEL             ....  626
 Basis Dimension        Dim             ....  498
 Nuclear Repulsion      ENuc            ....  13584.1471667432 Eh

Convergence Acceleration:
 DIIS                   CNVDIIS         .... off
 Newton-Raphson         CNVNR           .... off
 SOSCF                  CNVSOSCF        .... off
 Level Shifting         CNVShift        .... off
 Zerner damping         CNVZerner       .... off
 Static damping         CNVDamp         .... off
 Fernandez-Rico         CNVRico         .... off

SCF Procedure:
 Maximum # iterations   MaxIter         .... 10000
 SCF integral mode      SCFMode         .... Direct
   Integral package                     .... LIBINT
 Reset frequency        DirectResetFreq ....    20
 Integral Threshold     Thresh          ....  1.000e-10 Eh
 Primitive CutOff       TCut            ....  1.000e-11 Eh

Convergence Tolerance:
 Convergence Check Mode ConvCheckMode   .... All-Criteria
 Convergence forced     ConvForced      .... 0
 Energy Change          TolE            ....  1.000e-06 Eh
 Max Density Change     TolMaxP         ....  1.000e-05
 RMS Density Change     TolRMSP         ....  1.000e-06


Diagonalization of the overlap matrix:
Smallest eigenvalue                        ... 1.716e-01
Time for diagonalization                   ...    0.052 sec
Threshold for overlap eigenvalues          ... 1.000e-08
Number of eigenvalues below threshold      ... 0
Time for construction of square roots      ...    0.049 sec
Total time needed                          ...    0.101 sec

--------------------------------
INITIAL GUESS: MINIMAL BASIS EHT
--------------------------------
The minimal basis has 488 functions
EHT matrix was diagonalized
Basis set overlap was calculated now projecting the orbitals
Using GuessMode=FMatrix for the initial guess
C*T matrix was formed
Effective Fockian was calculated
Effective Fockian was diagonalized
Initial density was built
                      ------------------
                      INITIAL GUESS DONE
                      ------------------

--------------------
CPCM SOLVATION MODEL
--------------------
CPCM parameters:
  Epsilon                                         ...      78.3550
  Refrac                                          ...       1.3300
  Rsolv                                           ...       1.3000
  Surface type                                    ...    GEPOL SES
  Epsilon function type                           ...         CPCM
Solvent:                                     ... WATER
SMD-CDS solvent descriptors:
  Soln                                       ...    1.3328
  Soln25                                     ...    1.3323
  Sola                                       ...    0.0000
  Solb                                       ...    0.0000
  Solg                                       ...    0.0000
  Solc                                       ...    0.0000
  Solh                                       ...    0.0000
Radii:
 Radius for N  used is    3.5716 Bohr (=   1.8900 Ang.)
 Radius for C  used is    3.4960 Bohr (=   1.8500 Ang.)
 Radius for O  used is    2.8724 Bohr (=   1.5200 Ang.)
 Radius for H  used is    2.2677 Bohr (=   1.2000 Ang.)
 Radius for S  used is    4.7054 Bohr (=   2.4900 Ang.)
Calculating surface                               ...        done! (  1.0s)
GEPOL surface points                              ...         7320
GEPOL Volume                                      ...    8240.3617
GEPOL Surface-area                                ...    4011.6996
Calculating surface distance matrix               ...        done! (  1.2s)
Performing Cholesky decomposition & store         ...        done! (  5.0s)
Overall time for CPCM initialization              ...                 7.2s
--------------
SCF ITERATIONS
--------------
ITER       Energy         Delta-E        Max-DP      RMS-DP      [F,P]   Gradient Norm
               ***  Starting incremental Fock matrix formation  ***
                             ****Resetting KDIIS****
                             ****Turning on KDIIS(Cayley)****
  0  -4618.6795047245   0.000000000000 0.06102436  0.00120269  0.7725196   0.203282437
  1  -4620.0468131720  -1.367308447519 0.09168698  0.00169817  0.6988810   0.182770122
  2  -4621.7579686753  -1.711155503222 0.15040344  0.00291645  0.5629849   0.147775741
  3  -4623.8278705715  -2.069901896221 0.38973458  0.00482844  0.3420540   0.090106307
  4  -4625.0730068132  -1.245136241758 0.09013801  0.00058993  0.0231068   0.005401610
  5  -4625.0906390533  -0.017632240043 0.04936905  0.00048573  0.0126753   0.002997500
  6  -4625.1000051949  -0.009366141646 0.03350817  0.00028190  0.0032577   0.001256118
  7  -4625.1026130308  -0.002607835839 0.01210612  0.00006424  0.0050645   0.000747707
  8  -4625.1023038432   0.000309187570 0.06927841  0.00033058  0.0044620   0.000754826
  9  -4625.1019661406   0.000337702647 0.01971686  0.00019925  0.0020860   0.000557257
 10  -4625.1026513754  -0.000685234832 0.01797641  0.00018284  0.0015103   0.000391599
 11  -4625.1031525732  -0.000501197770 0.00969963  0.00006074  0.0012192   0.000279569
 12  -4625.1033235745  -0.000171001334 0.04025851  0.00022001  0.0013557   0.000255746
 13  -4625.1027768094   0.000546765112 0.02662362  0.00012114  0.0011936   0.000306988
 14  -4625.1027165438   0.000060265569 0.01641711  0.00008696  0.0012226   0.000271455
 15  -4625.1027940229  -0.000077479093 0.01560659  0.00013795  0.0011576   0.000220560
 16  -4625.1030774388  -0.000283415852 0.02191907  0.00017220  0.0011911   0.000196124
 17  -4625.1027606170   0.000316821728 0.00562920  0.00003967  0.0012192   0.000203104
 18  -4625.1027069619   0.000053655085 0.00098234  0.00000558  0.0012065   0.000207897
 19  -4625.1027145167  -0.000007554780 0.00284792  0.00002847  0.0012064   0.000208034
               *** Restarting incremental Fock matrix formation ***
                             ****Resetting KDIIS****
 20  -4625.1026772474   0.000037269294 0.00084001  0.00000679  0.0012069   0.000202703
 21  -4625.1026910092  -0.000013761788 0.00285628  0.00002354  0.0012025   0.000200076
 22  -4625.1027377166  -0.000046707377 0.00183896  0.00001900  0.0011917   0.000194618
 23  -4625.1027716995  -0.000033982868 0.01380419  0.00011255  0.0011923   0.000189982
 24  -4625.1029648116  -0.000193112148 0.00166022  0.00001228  0.0011379   0.000187771
 25  -4625.1029874142  -0.000022602573 0.01873882  0.00015816  0.0011404   0.000187010
 26  -4625.1027338017   0.000253612471 0.00655524  0.00005312  0.0011640   0.000196830
 27  -4625.1026404198   0.000093381933 0.00493423  0.00004536  0.0011767   0.000202122
 28  -4625.1025557791   0.000084640657 0.00680073  0.00005289  0.0011519   0.000215820
 29  -4625.1026473448  -0.000091565719 0.01832865  0.00014622  0.0011684   0.000191854
 30  -4625.1028955565  -0.000248211657 0.01501506  0.00011594  0.0011654   0.000186636
 31  -4625.1027028419   0.000192714628 0.00594857  0.00003369  0.0011856   0.000188995
 32  -4625.1026945121   0.000008329822 0.00276477  0.00002557  0.0011915   0.000182587
 33  -4625.1026569782   0.000037533836 0.01398963  0.00010338  0.0011903   0.000182665
 34  -4625.1028377113  -0.000180733085 0.00267811  0.00001770  0.0011350   0.000176952
 35  -4625.1028643454  -0.000026634069 0.01521529  0.00011326  0.0011349   0.000175472
 36  -4625.1030589314  -0.000194586025 0.01923703  0.00013605  0.0011236   0.000186511
 37  -4625.1028163552   0.000242576243 0.01514091  0.00007822  0.0011546   0.000190058
 38  -4625.1027771941   0.000039161088 0.00462852  0.00004154  0.0011609   0.000274177
 39  -4625.1028425378  -0.000065343726 0.00481910  0.00004246  0.0012268   0.000187508
               *** Restarting incremental Fock matrix formation ***
                             ****Resetting KDIIS****
 40  -4625.1027782547   0.000064283135 0.00109060  0.00000671  0.0012387   0.000191637
 41  -4625.1027905400  -0.000012285393 0.00376174  0.00002707  0.0012219   0.000185802
 42  -4625.1028386219  -0.000048081805 0.00213278  0.00001518  0.0012083   0.000183019
 43  -4625.1028174667   0.000021155129 0.02155207  0.00014618  0.0012119   0.000182523
 44  -4625.1030654812  -0.000248014458 0.00579072  0.00003894  0.0011747   0.000180987
 45  -4625.1029973803   0.000068100882 0.02445117  0.00015561  0.0011750   0.000181276
 46  -4625.1032241429  -0.000226762625 0.04494907  0.00026931  0.0009816   0.000222202
 47  -4625.1037136923  -0.000489549403 0.15517832  0.00122239  0.0011379   0.000226443
 48  -4625.1012001659   0.002513526433 0.02134714  0.00017971  0.0029848   0.000735624
 49  -4625.1016245171  -0.000424351250 0.05934192  0.00052409  0.0027226   0.000667150
 50  -4625.1027133006  -0.001088783467 0.00570438  0.00003705  0.0019301   0.000460993
 51  -4625.1027490723  -0.000035771705 0.12959147  0.00075617  0.0017050   0.000426694
 52  -4625.1041004588  -0.001351386471 0.13747711  0.00081440  0.0023853   0.000555594
 53  -4625.1026738391   0.001426619683 0.08373579  0.00053632  0.0019169   0.000450615
 54  -4625.1035743713  -0.000900532169 0.04391797  0.00022813  0.0020948   0.000452584
 55  -4625.1032573654   0.000317005882 0.02498798  0.00016286  0.0013373   0.000173049
 56  -4625.1029750251   0.000282340249 0.02520756  0.00017471  0.0012998   0.000174481
 57  -4625.1032823282  -0.000307303008 0.06581126  0.00047004  0.0014100   0.000174404
 58  -4625.1024558004   0.000826527738 0.00375979  0.00003200  0.0013099   0.000195595
 59  -4625.1023990073   0.000056793105 0.07023925  0.00062093  0.0013116   0.000200196
               *** Restarting incremental Fock matrix formation ***
                             ****Resetting KDIIS****
 60  -4625.1009082103   0.001490796975 0.00160177  0.00001143  0.0035412   0.000773785
 61  -4625.1009829557  -0.000074745395 0.00292332  0.00002621  0.0031733   0.000699881
 62  -4625.1011162374  -0.000133281635 0.00990632  0.00008279  0.0026487   0.000582925
 63  -4625.1014034018  -0.000287164487 0.01207448  0.00009759  0.0016402   0.000390995
 64  -4625.1016571093  -0.000253707412 0.01331595  0.00010298  0.0015737   0.000224973
 65  -4625.1018545904  -0.000197481129 0.03801615  0.00032783  0.0014213   0.000200618
 66  -4625.1024775787  -0.000622988305 0.01123008  0.00008863  0.0009039   0.000255384
 67  -4625.1026673528  -0.000189774118 0.03494529  0.00027158  0.0008816   0.000234171
 68  -4625.1021177788   0.000549574052 0.00443472  0.00003911  0.0009305   0.000237154
 69  -4625.1021975123  -0.000079733520 0.01494639  0.00011906  0.0010333   0.000202692
 70  -4625.1019530915   0.000244420748 0.00826317  0.00006026  0.0010522   0.000198810
 71  -4625.1018562095   0.000096881993 0.01127469  0.00007947  0.0011335   0.000205241
 72  -4625.1019560421  -0.000099832526 0.02001890  0.00016977  0.0009869   0.000204272
 73  -4625.1022900437  -0.000334001676 0.02279073  0.00011418  0.0009313   0.000192057
 74  -4625.1021049136   0.000185130113 0.01445034  0.00009933  0.0008409   0.000204497
 75  -4625.1021957885  -0.000090874883 0.01099308  0.00006717  0.0009393   0.000188026
 76  -4625.1021564639   0.000039324608 0.01132669  0.00008394  0.0008034   0.000194663
 77  -4625.1020686870   0.000087776913 0.00157257  0.00001120  0.0009797   0.000191468
 78  -4625.1020725687  -0.000003881748 0.02005441  0.00008195  0.0010076   0.000189091
 79  -4625.1021298623  -0.000057293600 0.00878626  0.00007001  0.0009283   0.000185854
               *** Restarting incremental Fock matrix formation ***
                             ****Resetting KDIIS****
 80  -4625.1022026085  -0.000072746151 0.00090511  0.00000641  0.0008383   0.000196083
 81  -4625.1022163283  -0.000013719842 0.00100721  0.00000685  0.0008424   0.000194303
 82  -4625.1022055920   0.000010736377 0.00311510  0.00001671  0.0008495   0.000189951
 83  -4625.1021826506   0.000022941394 0.01516598  0.00010160  0.0008567   0.000187893
 84  -4625.1023830763  -0.000200425696 0.01260783  0.00008350  0.0009157   0.000185974
 85  -4625.1022709386   0.000112137682 0.00333247  0.00002915  0.0009667   0.000202552
 86  -4625.1023240553  -0.000053116772 0.01730360  0.00012618  0.0009896   0.000186435
 87  -4625.1020793484   0.000244706939 0.00796741  0.00005003  0.0009615   0.000205162
 88  -4625.1021785313  -0.000099182849 0.01792929  0.00012132  0.0009914   0.000200384
 89  -4625.1019408495   0.000237681744 0.01557415  0.00013325  0.0009761   0.000207905
 90  -4625.1021685086  -0.000227659139 0.04135339  0.00026631  0.0008909   0.000198082
 91  -4625.1026570497  -0.000488541074 0.02159055  0.00015881  0.0010563   0.000185422
 92  -4625.1023675277   0.000289522049 0.03196811  0.00024535  0.0010604   0.000173575
 93  -4625.1027978995  -0.000430371845 0.01084136  0.00008291  0.0010628   0.000184037
 94  -4625.1026563931   0.000141506456 0.01881644  0.00013251  0.0010449   0.000180101
 95  -4625.1028930767  -0.000236683653 0.01070476  0.00007295  0.0010401   0.000189010
 96  -4625.1029692895  -0.000076212745 0.00324881  0.00002892  0.0010854   0.000193954
 97  -4625.1030048138  -0.000035524372 0.01052194  0.00005965  0.0011688   0.000171116
 98  -4625.1030430725  -0.000038258664 0.02011491  0.00015698  0.0012128   0.000183525
 99  -4625.1027940352   0.000249037269 0.01110019  0.00005427  0.0011565   0.000193596
               *** Restarting incremental Fock matrix formation ***
                             ****Resetting KDIIS****
100  -4625.1027678663   0.000026168927 0.00109749  0.00000680  0.0011686   0.000183962
101  -4625.1027801836  -0.000012317303 0.00345475  0.00002501  0.0011539   0.000181171
102  -4625.1028255208  -0.000045337201 0.00436203  0.00003861  0.0011412   0.000180500
103  -4625.1027638254   0.000061695416 0.00620054  0.00005696  0.0011592   0.000180514
104  -4625.1026826856   0.000081139785 0.00462531  0.00005245  0.0011827   0.000185806
105  -4625.1027520893  -0.000069403672 0.01281574  0.00009175  0.0015539   0.000225093
106  -4625.1026206556   0.000131433685 0.02552254  0.00021330  0.0021285   0.000449322
107  -4625.1022332165   0.000387439126 0.03088579  0.00031403  0.0025474   0.000524261
108  -4625.1028763405  -0.000643123994 0.01204011  0.00009074  0.0012186   0.000180631
109  -4625.1027139309   0.000162409557 0.00339685  0.00002646  0.0011636   0.000181927
110  -4625.1026775704   0.000036360546 0.00492813  0.00004074  0.0011672   0.000185234
111  -4625.1027161459  -0.000038575581 0.00907952  0.00006201  0.0010593   0.000187584
112  -4625.1027841454  -0.000067999506 0.01481648  0.00008932  0.0011800   0.000181423
113  -4625.1026501560   0.000133989414 0.01083133  0.00007178  0.0009817   0.000199407
114  -4625.1027544137  -0.000104257681 0.02964192  0.00017144  0.0009666   0.000184176
115  -4625.1024971118   0.000257301863 0.00572843  0.00005455  0.0010040   0.000187234
116  -4625.1024714963   0.000025615558 0.00680342  0.00003528  0.0010605   0.000192878
117  -4625.1024253948   0.000046101482 0.00348291  0.00003302  0.0010004   0.000193698
118  -4625.1024158245   0.000009570325 0.00164917  0.00001345  0.0010297   0.000180083
119  -4625.1024225151  -0.000006690620 0.00712916  0.00005430  0.0010121   0.000179410
               *** Restarting incremental Fock matrix formation ***
                             ****Resetting KDIIS****
120  -4625.1025179544  -0.000095439262 0.00077356  0.00000586  0.0009983   0.000175834
121  -4625.1025286883  -0.000010733940 0.00138224  0.00001041  0.0009981   0.000175803
Warning: badly conditioned DIIS matrix, 1 vectors out of 3 destroyed
122  -4625.1025476773  -0.000018988990 0.00252525  0.00001884  0.0009976   0.000175828
123  -4625.1025819069  -0.000034229636 0.00912572  0.00006409  0.0009965   0.000176083
124  -4625.1026954661  -0.000113559142 0.12583165  0.00073655  0.0009643   0.000187516
Warning: badly conditioned DIIS matrix, 1 vectors out of 5 destroyed
125  -4625.1039441198  -0.001248653743 0.04541734  0.00022890  0.0021730   0.000453994
126  -4625.1036129950   0.000331124772 0.10826704  0.00068229  0.0012498   0.000215691
127  -4625.1023861744   0.001226820691 0.02280624  0.00019373  0.0014241   0.000200624
128  -4625.1020525983   0.000333576054 0.02897812  0.00023938  0.0014835   0.000189407
129  -4625.1024786387  -0.000426040407 0.02257232  0.00019962  0.0014517   0.000192021
130  -4625.1021304065   0.000348232165 0.09431778  0.00067411  0.0012733   0.000194365
131  -4625.1033308903  -0.001200483792 0.15851684  0.00136388  0.0016405   0.000199067
132  -4625.1002096134   0.003121276893 0.02801417  0.00013670  0.0044220   0.000940684
133  -4625.1004525743  -0.000242960901 0.06542453  0.00036127  0.0048853   0.000985568
134  -4625.1011406301  -0.000688055781 0.06504390  0.00052180  0.0048215   0.001000469
135  -4625.1022401858  -0.001099555704 0.15028085  0.00091384  0.0041840   0.000825300
136  -4625.1040813388  -0.001841153025 0.16105321  0.00087478  0.0028035   0.000599941
137  -4625.1026905507   0.001390788153 0.06653730  0.00037783  0.0019084   0.000434040
138  -4625.1028362315  -0.000145680757 0.02190936  0.00018207  0.0034523   0.000776394
139  -4625.1032421179  -0.000405886405 0.01975078  0.00013215  0.0023783   0.000585149
               *** Restarting incremental Fock matrix formation ***
                             ****Resetting KDIIS****
140  -4625.1034808006  -0.000238682695 0.00147105  0.00000752  0.0014971   0.000195228
141  -4625.1034946390  -0.000013838440 0.00591176  0.00003522  0.0014694   0.000191384
142  -4625.1035595376  -0.000064898650 0.00204189  0.00001118  0.0014627   0.000191461
143  -4625.1035441629   0.000015374701 0.02310634  0.00013238  0.0014627   0.000193059
[...]
3437  -4625.1030930957   0.000019564625 0.01461022  0.00010210  0.0009669   0.000217994
3438  -4625.1029255675   0.000167528250 0.00216774  0.00001698  0.0009871   0.000202613
3439  -4625.1029057686   0.000019798850 0.00776138  0.00006441  0.0009874   0.000201744
               *** Restarting incremental Fock matrix formation ***
                             ****Resetting KDIIS****
3440  -4625.1030036548  -0.000097886184 0.00091000  0.00000590  0.0009870   0.000200307
3441  -4625.1030149512  -0.000011296391 0.00364900  0.00002403  0.0009856   0.000196739
3442  -4625.1030598188  -0.000044867584 0.01226769  0.00008249  0.0009937   0.000195534
3443  -4625.1029086515   0.000151167254 0.01991270  0.00014767  0.0009483   0.000199730
3444  -4625.1027285904   0.000180061139 0.01153804  0.00008209  0.0011259   0.000184234
3445  -4625.1025940409   0.000134549534 0.00602633  0.00004676  0.0010627   0.000204881
3446  -4625.1025069261   0.000087114720 0.02188765  0.00014571  0.0010333   0.000206485
3447  -4625.1027257255  -0.000218799393 0.00959315  0.00005492  0.0010115   0.000245349
3448  -4625.1026439014   0.000081824155 0.01174717  0.00008646  0.0009985   0.000193523
3449  -4625.1027964740  -0.000152572581 0.04493378  0.00028093  0.0010825   0.000188799
3450  -4625.1033060072  -0.000509533214 0.05565815  0.00036874  0.0010668   0.000204155
3451  -4625.1026497254   0.000656281826 0.01779879  0.00013475  0.0009563   0.000214363
3452  -4625.1024046426   0.000245082739 0.01227029  0.00009403  0.0009379   0.000231517
3453  -4625.1025778280  -0.000173185377 0.01411205  0.00012515  0.0010356   0.000221632
3454  -4625.1023507791   0.000227048928 0.01338403  0.00010221  0.0009717   0.000290220
3455  -4625.1025285227  -0.000177743654 0.09658168  0.00061441  0.0011108   0.000319438
3456  -4625.1036284161  -0.001099893417 0.01122889  0.00005957  0.0016957   0.000345526
3457  -4625.1035378086   0.000090607566 0.15005882  0.00076757  0.0014298   0.000293962
3458  -4625.1050185607  -0.001480752115 0.20256896  0.00104996  0.0028380   0.000572093
3459  -4625.1030337348   0.001984825924 0.01300452  0.00009416  0.0013922   0.000213773
               *** Restarting incremental Fock matrix formation ***
                             ****Resetting KDIIS****
3460  -4625.1029200831   0.000113651654 0.00125466  0.00000760  0.0012556   0.000209462
3461  -4625.1029352019  -0.000015118786 0.00344958  0.00002491  0.0012287   0.000201787
3462  -4625.1029837951  -0.000048593185 0.00724712  0.00003253  0.0012033   0.000197326
3463  -4625.1029406166   0.000043178518 0.01133160  0.00008630  0.0012133   0.000197666
3464  -4625.1027950629   0.000145553650 0.02059032  0.00017209  0.0012179   0.000215064
3465  -4625.1025093066   0.000285756320 0.01383095  0.00010214  0.0012545   0.000200869
3466  -4625.1026944028  -0.000185096243 0.01251384  0.00006910  0.0012741   0.000177339
3467  -4625.1027865016  -0.000092098736 0.01044218  0.00006299  0.0015546   0.000268345
3468  -4625.1028784292  -0.000091927660 0.00124975  0.00000513  0.0012632   0.000188854
3469  -4625.1028771546   0.000001274620 0.00967644  0.00004476  0.0012635   0.000189821
3470  -4625.1028610589   0.000016095686 0.02614527  0.00017568  0.0012585   0.000195397
3471  -4625.1031641370  -0.000303078078 0.01226678  0.00008506  0.0012319   0.000203977
3472  -4625.1030296099   0.000134527136 0.03173452  0.00018731  0.0012795   0.000182828
3473  -4625.1033471504  -0.000317540561 0.00762266  0.00005788  0.0011552   0.000228641
3474  -4625.1034546218  -0.000107471345 0.05752782  0.00038277  0.0012980   0.000190502
3475  -4625.1027709619   0.000683659895 0.00973521  0.00008227  0.0011637   0.000251288
3476  -4625.1026258363   0.000145125536 0.00816210  0.00006225  0.0011173   0.000280234
3477  -4625.1025516936   0.000074142748 0.01189908  0.00007152  0.0012655   0.000228660
3478  -4625.1026468251  -0.000095131464 0.00549474  0.00004637  0.0013026   0.000228900
3479  -4625.1025536754   0.000093149677 0.00731059  0.00006475  0.0012177   0.000278020
               *** Restarting incremental Fock matrix formation ***
                             ****Resetting KDIIS****
3480  -4625.1026716081  -0.000117932675 0.00117158  0.00000673  0.0012695   0.000225357
3481  -4625.1026849419  -0.000013333834 0.00444621  0.00003221  0.0012465   0.000218299
3482  -4625.1027456310  -0.000060689107 0.00330992  0.00002421  0.0012442   0.000209815
3483  -4625.1027908930  -0.000045261998 0.00500461  0.00003691  0.0012498   0.000204736
3484  -4625.1028558204  -0.000064927419 0.02168421  0.00015556  0.0012702   0.000193771
3485  -4625.1025814193   0.000274401097 0.15674518  0.00090730  0.0013233   0.000195019
3486  -4625.1041756810  -0.001594261735 0.03357220  0.00015065  0.0021947   0.000490646
3487  -4625.1039831896   0.000192491480 0.09932388  0.00060803  0.0014211   0.000214648
3488  -4625.1028720143   0.001111175311 0.01023009  0.00007148  0.0012599   0.000191801
3489  -4625.1029980159  -0.000126001678 0.02273423  0.00014324  0.0012909   0.000171744
3490  -4625.1027500289   0.000247987032 0.06874268  0.00044350  0.0014871   0.000180497
3491  -4625.1035324240  -0.000782395130 0.20976597  0.00181549  0.0017002   0.000194241
3492  -4625.0977350345   0.005797389576 0.12440034  0.00103821  0.0081284   0.001807509
3493  -4625.1019047430  -0.004169708521 0.02000383  0.00018131  0.0025338   0.000598860
3494  -4625.1023012462  -0.000396503255 0.01759849  0.00014078  0.0023034   0.000496387
3495  -4625.1025743623  -0.000273116068 0.00651163  0.00005201  0.0021189   0.000459796
3496  -4625.1026581550  -0.000083792728 0.00477719  0.00003526  0.0020577   0.000452596
3497  -4625.1025931168   0.000065038185 0.18919907  0.00106908  0.0020854   0.000458897
3498  -4625.1044723831  -0.001879266287 0.00900037  0.00004774  0.0032229   0.000744238
3499  -4625.1045499002  -0.000077517117 0.00238461  0.00001601  0.0034152   0.000773856
               *** Restarting incremental Fock matrix formation ***
                             ****Resetting KDIIS****
3500  -4625.1045863835  -0.000036483289 0.00149846  0.00000961  0.0033436   0.000770727
3501  -4625.1046502814  -0.000063897899 0.00255458  0.00001806  0.0030059   0.000696670
3502  -4625.1047538375  -0.000103556037 0.01038219  0.00004313  0.0024714   0.000579026
3503  -4625.1047465983   0.000007239195 0.01782504  0.00008500  0.0016933   0.000408811
3504  -4625.1046454591   0.000101139144 0.01181967  0.00006146  0.0021146   0.000242381
3505  -4625.1047961781  -0.000150718971 0.05878852  0.00032656  0.0022019   0.000240323
3506  -4625.1040677381   0.000728439968 0.00208538  0.00001194  0.0018116   0.000237560
                          ***Energy convergence achieved***
3507  -4625.1040684677  -0.000000729569 0.04049990  0.00025539  0.0018491   0.000222178
3508  -4625.1035261672   0.000542300477 0.02086862  0.00016560  0.0015564   0.000311829
3509  -4625.1031455507   0.000380616502 0.01114792  0.00009820  0.0018750   0.000460434
3510  -4625.1034024113  -0.000256860589 0.01540717  0.00008518  0.0016154   0.000368539
3511  -4625.1034963454  -0.000093934038 0.01408765  0.00010865  0.0017562   0.000236803
3512  -4625.1033306043   0.000165741043 0.03009341  0.00019008  0.0017686   0.000240209
3513  -4625.1036828504  -0.000352246082 0.09021166  0.00047601  0.0017867   0.000257950
3514  -4625.1046640673  -0.000981216915 0.10991148  0.00062147  0.0017395   0.000350765
3515  -4625.1033951357   0.001268931567 0.07427143  0.00051461  0.0015469   0.000382237
3516  -4625.1024761616   0.000918974176 0.02206902  0.00017440  0.0016252   0.000416010
3517  -4625.1027791468  -0.000302985214 0.01745677  0.00013959  0.0015140   0.000420193
3518  -4625.1024467479   0.000332398928 0.03754342  0.00026679  0.0033219   0.000844910
3519  -4625.1030167082  -0.000569960359 0.20449360  0.00108086  0.0031043   0.000773001
               *** Restarting incremental Fock matrix formation ***
                             ****Resetting KDIIS****
3520  -4625.1054536596  -0.002436951387 0.00156293  0.00001042  0.0035784   0.000862440
3521  -4625.1055322996  -0.000078640033 0.00277427  0.00001919  0.0032513   0.000786385
3522  -4625.1056598056  -0.000127505920 0.01177549  0.00004578  0.0026865   0.000658072
3523  -4625.1056347806   0.000025024919 0.04681529  0.00021682  0.0018705   0.000473935
3524  -4625.1050853683   0.000549412365 0.01075000  0.00005904  0.0025212   0.000301324
3525  -4625.1052608622  -0.000175493931 0.06566692  0.00035876  0.0026832   0.000290722
3526  -4625.1042921386   0.000968723581 0.01262925  0.00007107  0.0021230   0.000292777
3527  -4625.1041404064   0.000151732223 0.01820487  0.00012604  0.0021167   0.000276730
3528  -4625.1043250850  -0.000184678579 0.04726396  0.00030503  0.0020648   0.000300421
3529  -4625.1034864239   0.000838661039 0.00780556  0.00007610  0.0016999   0.000431365
3530  -4625.1036658207  -0.000179396754 0.05005559  0.00031007  0.0015630   0.000526557
3531  -4625.1044495131  -0.000783692418 0.01335883  0.00012172  0.0021066   0.000338018
3532  -4625.1044135765   0.000035936598 0.01044697  0.00008872  0.0020905   0.000232070
3533  -4625.1043248131   0.000088763442 0.03530164  0.00020759  0.0019446   0.000302007
3534  -4625.1047864859  -0.000461672856 0.16992460  0.00129190  0.0021414   0.000292066
3535  -4625.1019451102   0.002841375673 0.02629700  0.00019673  0.0033889   0.000837250
3536  -4625.1024787448  -0.000533634508 0.01492407  0.00012178  0.0024719   0.000557795
3537  -4625.1028173329  -0.000338588101 0.03083100  0.00026947  0.0017334   0.000393918
3538  -4625.1033970771  -0.000579744208 0.02680023  0.00022180  0.0014579   0.000205093
3539  -4625.1035023494  -0.000105272384 0.04773364  0.00045087  0.0017785   0.000249648
               *** Restarting incremental Fock matrix formation ***
                             ****Resetting KDIIS****
3540  -4625.1028933545   0.000608994907 0.00101562  0.00000865  0.0017803   0.000270267
3541  -4625.1029165093  -0.000023154713 0.00231495  0.00001968  0.0017642   0.000267335
3542  -4625.1029684576  -0.000051948326 0.00451045  0.00002892  0.0017286   0.000262176
3543  -4625.1029450599   0.000023397716 0.01228620  0.00010400  0.0016905   0.000253153
3544  -4625.1030553980  -0.000110338150 0.00635835  0.00005080  0.0014068   0.000225272
3545  -4625.1031636769  -0.000108278856 0.01974687  0.00013945  0.0013825   0.000231454
3546  -4625.1029262800   0.000237396845 0.00935504  0.00007986  0.0013973   0.000234065
3547  -4625.1030497242  -0.000123444163 0.00224297  0.00001737  0.0013337   0.000207593
3548  -4625.1030612471  -0.000011522867 0.01199657  0.00008016  0.0012412   0.000206857
3549  -4625.1031954027  -0.000134155619 0.01325837  0.00012806  0.0012707   0.000202350
3550  -4625.1032549073  -0.000059504638 0.00664418  0.00005933  0.0012423   0.000212200
3551  -4625.1033267541  -0.000071846797 0.00334488  0.00002481  0.0011934   0.000215142
3552  -4625.1033591786  -0.000032424541 0.01460771  0.00009598  0.0011880   0.000213104
3553  -4625.1032183491   0.000140829568 0.01159939  0.00007366  0.0011998   0.000204880
3554  -4625.1033430303  -0.000124681215 0.01269588  0.00009786  0.0010504   0.000214042
3555  -4625.1035285487  -0.000185518370 0.00472189  0.00004662  0.0011738   0.000230214
3556  -4625.1035805838  -0.000052035084 0.03706229  0.00026564  0.0011726   0.000224427
3557  -4625.1031448273   0.000435756427 0.00520171  0.00004232  0.0011937   0.000216414
3558  -4625.1030848454   0.000059981895 0.00758322  0.00006431  0.0012112   0.000218459
3559  -4625.1029771981   0.000107647354 0.01876718  0.00011686  0.0012254   0.000219821
               *** Restarting incremental Fock matrix formation ***
                             ****Resetting KDIIS****
3560  -4625.1028151365   0.000162061601 0.00082116  0.00000650  0.0011384   0.000196807
3561  -4625.1028278001  -0.000012663613 0.00082849  0.00000681  0.0011376   0.000194664
3562  -4625.1028411375  -0.000013337401 0.00217618  0.00001765  0.0011400   0.000190956
3563  -4625.1028749155  -0.000033778012 0.03435542  0.00023912  0.0011451   0.000187351
3564  -4625.1032960638  -0.000421148306 0.00785537  0.00005654  0.0010536   0.000227646
3565  -4625.1034093086  -0.000113244747 0.03546477  0.00025174  0.0010466   0.000214986
3566  -4625.1029604100   0.000448898599 0.00978352  0.00007905  0.0011349   0.000218080
3567  -4625.1028278444   0.000132565558 0.00452210  0.00003427  0.0011160   0.000221329
3568  -4625.1028804755  -0.000052631070 0.00304628  0.00002133  0.0011585   0.000233172
3569  -4625.1028840558  -0.000003580336 0.00955978  0.00007884  0.0011318   0.000208978
3570  -4625.1030185690  -0.000134513180 0.01121042  0.00007202  0.0012445   0.000206069
3571  -4625.1030626400  -0.000044071026 0.00602832  0.00005530  0.0012135   0.000244127
3572  -4625.1031606368  -0.000097996744 0.04714764  0.00035256  0.0012582   0.000214226
3573  -4625.1025130377   0.000647599061 0.00748967  0.00007071  0.0011837   0.000229826
3574  -4625.1026279338  -0.000114896070 0.01265094  0.00008455  0.0011338   0.000230456
3575  -4625.1025222445   0.000105689280 0.03449781  0.00026200  0.0012423   0.000236542
3576  -4625.1029883321  -0.000466087648 0.05717489  0.00036152  0.0011324   0.000216333
3577  -4625.1036488860  -0.000660553921 0.00844478  0.00005820  0.0011338   0.000251774
3578  -4625.1037701400  -0.000121253966 0.09357998  0.00063729  0.0010954   0.000216742
3579  -4625.1025781130   0.001192027028 0.00640790  0.00005508  0.0010277   0.000274929
               *** Restarting incremental Fock matrix formation ***
                             ****Resetting KDIIS****
3580  -4625.1026654254  -0.000087312435 0.00061856  0.00000576  0.0010217   0.000273080
3581  -4625.1026787403  -0.000013314906 0.00122450  0.00000752  0.0010261   0.000261972
3582  -4625.1026717244   0.000007015950 0.00134185  0.00000785  0.0010330   0.000241380
3583  -4625.1026678549   0.000003869464 0.00239614  0.00001397  0.0010597   0.000215120
3584  -4625.1026511938   0.000016661067 0.02894396  0.00020981  0.0011555   0.000198989
3585  -4625.1030367307  -0.000385536888 0.00233563  0.00001557  0.0010803   0.000196388
3586  -4625.1030645742  -0.000027843415 0.01941037  0.00013677  0.0010688   0.000199711
3587  -4625.1033177717  -0.000253197518 0.09397063  0.00076894  0.0011814   0.000175147
3588  -4625.1018115092   0.001506262428 0.06915607  0.00058804  0.0013418   0.000330926
3589  -4625.1029627571  -0.001151247863 0.12061195  0.00071116  0.0010358   0.000289497
3590  -4625.1043030573  -0.001340300214 0.10308559  0.00061066  0.0019644   0.000451909
3591  -4625.1031414199   0.001161637402 0.13169069  0.00075350  0.0017030   0.000385261
3592  -4625.1045951868  -0.001453766844 0.09085782  0.00047672  0.0024082   0.000532702
3593  -4625.1037046234   0.000890563349 0.12189298  0.00092560  0.0010609   0.000266529
3594  -4625.1018635857   0.001841037732 0.06780423  0.00057882  0.0019141   0.000475920
3595  -4625.1030366153  -0.001173029597 0.03122953  0.00024155  0.0012217   0.000327728
3596  -4625.1026680323   0.000368582959 0.13210451  0.00084577  0.0014079   0.000349095
3597  -4625.1041704550  -0.001502422659 0.11956808  0.00058857  0.0015280   0.000397252
3598  -4625.1053432941  -0.001172839101 0.13591676  0.00060400  0.0033193   0.000800888
3599  -4625.1069430992  -0.001599805109 0.28365564  0.00131609  0.0051901   0.001196519
               *** Restarting incremental Fock matrix formation ***
                             ****Resetting KDIIS****
3600  -4625.1039198392   0.003023259949 0.00095118  0.00000637  0.0011598   0.000309278
3601  -4625.1039358371  -0.000015997904 0.00133490  0.00000719  0.0011263   0.000295668
3602  -4625.1039330599   0.000002777272 0.01438179  0.00008041  0.0011477   0.000266940
3603  -4625.1037880627   0.000144997150 0.02010631  0.00011394  0.0011996   0.000237628
3604  -4625.1035801660   0.000207896734 0.00267060  0.00001560  0.0012596   0.000228766
3605  -4625.1035514855   0.000028680519 0.00195907  0.00001864  0.0012611   0.000228308
3606  -4625.1035707305  -0.000019245033 0.04897067  0.00027515  0.0012708   0.000239828
3607  -4625.1040911791  -0.000520448628 0.01758553  0.00010524  0.0012661   0.000233562
3608  -4625.1038846513   0.000206527789 0.05745268  0.00033904  0.0011593   0.000269963
3609  -4625.1032993019   0.000585349451 0.06456322  0.00038062  0.0013372   0.000213479
3610  -4625.1039913920  -0.000692090108 0.07552340  0.00045020  0.0013657   0.000214126
3611  -4625.1031622409   0.000829151119 0.03273561  0.00022792  0.0012916   0.000243326
3612  -4625.1027380370   0.000424203856 0.14847632  0.00087444  0.0013549   0.000270359
3613  -4625.1043706666  -0.001632629545 0.05473061  0.00027441  0.0014320   0.000373838
3614  -4625.1050067853  -0.000636118737 0.08401922  0.00043584  0.0017825   0.000409063
3615  -4625.1040073966   0.000999388745 0.16056965  0.00117021  0.0016817   0.000430841
3616  -4625.1014183554   0.002589041137 0.03524807  0.00030222  0.0039004   0.000920743
3617  -4625.1022166141  -0.000798258660 0.03549831  0.00028591  0.0030707   0.000713469
3618  -4625.1028596001  -0.000642986057 0.06307379  0.00040925  0.0023044   0.000533434
3619  -4625.1036653943  -0.000805794133 0.05545685  0.00034935  0.0017757   0.000413826
               *** Restarting incremental Fock matrix formation ***
                             ****Resetting KDIIS****
3620  -4625.1030197340   0.000645660311 0.00082722  0.00000654  0.0019599   0.000441616
3621  -4625.1030439422  -0.000024208285 0.00151105  0.00001040  0.0017941   0.000407825
3622  -4625.1030803110  -0.000036368716 0.00327984  0.00001848  0.0014727   0.000347020
3623  -4625.1030845394  -0.000004228486 0.00516826  0.00003109  0.0011674   0.000265084
3624  -4625.1031035659  -0.000019026495 0.04182096  0.00025791  0.0014830   0.000197571
3625  -4625.1035666500  -0.000463084020 0.00848269  0.00005180  0.0013509   0.000182321
3626  -4625.1034741892   0.000092460734 0.01718601  0.00010867  0.0013549   0.000183412
3627  -4625.1032818801   0.000192309176 0.00933013  0.00006701  0.0013625   0.000188522
3628  -4625.1034016807  -0.000119800663 0.02362277  0.00017158  0.0014526   0.000185218
3629  -4625.1031487741   0.000252906601 0.02308025  0.00015118  0.0013462   0.000219113
3630  -4625.1034008613  -0.000252087180 0.02082040  0.00013270  0.0012625   0.000203177
3631  -4625.1031779357   0.000222925588 0.05199395  0.00041281  0.0012679   0.000206764
3632  -4625.1024331877   0.000744747979 0.03529980  0.00027586  0.0013593   0.000301115
3633  -4625.1029441668  -0.000510979031 0.02699740  0.00020432  0.0012544   0.000246857
3634  -4625.1033110501  -0.000366883386 0.07434358  0.00061385  0.0010182   0.000242295
3635  -4625.1019938614   0.001317188734 0.09205318  0.00071918  0.0023887   0.000611754
3636  -4625.1034520159  -0.001458154517 0.01416452  0.00008703  0.0010203   0.000251068
3637  -4625.1036060672  -0.000154051323 0.10163488  0.00073563  0.0010175   0.000251500
3638  -4625.1022452089   0.001360858375 0.04016567  0.00038090  0.0017312   0.000367246
3639  -4625.1013669576   0.000878251296 0.11844212  0.00097350  0.0027499   0.000585774
               *** Restarting incremental Fock matrix formation ***
                             ****Resetting KDIIS****
3640  -4625.1030383696  -0.001671411977 0.00156361  0.00000975  0.0032697   0.000712588
3641  -4625.1030976055  -0.000059235968 0.00254574  0.00001867  0.0029056   0.000636936
3642  -4625.1031909504  -0.000093344888 0.00401191  0.00002881  0.0023845   0.000524559
3643  -4625.1033063108  -0.000115360421 0.01282801  0.00010159  0.0015560   0.000356083
3644  -4625.1035544388  -0.000248128012 0.01113432  0.00005687  0.0016569   0.000184364
3645  -4625.1035681735  -0.000013734694 0.00952141  0.00006292  0.0015835   0.000176877
3646  -4625.1036893028  -0.000121129230 0.03341740  0.00022451  0.0015823   0.000167593
slurmstepd: error: *** JOB 5289206 ON c27a-s36 CANCELLED AT 2023-08-04T06:33:56 DUE TO TIME LIMIT ***
