/home/zfg2013/blue_zfg2013/INPS
c0705a-s23.ufhpc
Thu Aug  3 23:56:25 EDT 2023

                                 *****************
                                 * O   R   C   A *
                                 *****************

           --- An Ab Initio, DFT and Semiempirical electronic structure package ---

                  #######################################################
                  #                        -***-                        #
                  #          Department of theory and spectroscopy      #
                  #               Directorship: Frank Neese             #
                  #        Max Planck Institute fuer Kohlenforschung    #
                  #                Kaiser Wilhelm Platz 1               #
                  #                 D-45470 Muelheim/Ruhr               #
                  #                      Germany                        #
                  #                                                     #
                  #                  All rights reserved                #
                  #                        -***-                        #
                  #######################################################


                         Program Version 4.2.1 -  RELEASE  -


 With contributions from (in alphabetic order):
   Daniel Aravena         : Magnetic Suceptibility
   Michael Atanasov       : Ab Initio Ligand Field Theory (pilot matlab implementation)
   Alexander A. Auer      : GIAO ZORA, VPT2
   Ute Becker             : Parallelization
   Giovanni Bistoni       : ED, misc. LED, open-shell LED, HFLD
   Martin Brehm           : Molecular dynamics
   Dmytro Bykov           : SCF Hessian
   Vijay G. Chilkuri      : MRCI spin determinant printing, contributions to CSF-ICE
   Dipayan Datta          : RHF DLPNO-CCSD density
   Achintya Kumar Dutta   : EOM-CC, STEOM-CC
   Dmitry Ganyushin       : Spin-Orbit,Spin-Spin,Magnetic field MRCI
   Miquel Garcia          : C-PCM Hessian, Gaussian charge scheme
   Yang Guo               : DLPNO-NEVPT2, CIM, IAO-localization
   Andreas Hansen         : Spin unrestricted coupled pair/coupled cluster methods
   Benjamin Helmich-Paris : CASSCF linear response (MC-RPA)
   Lee Huntington         : MR-EOM, pCC
   Robert Izsak           : Overlap fitted RIJCOSX, COSX-SCS-MP3, EOM
   Christian Kollmar      : KDIIS, OOCD, Brueckner-CCSD(T), CCSD density
   Simone Kossmann        : Meta GGA functionals, TD-DFT gradient, OOMP2, MP2 Hessian
   Martin Krupicka        : AUTO-CI
   Lucas Lang             : DCDCAS
   Dagmar Lenk            : GEPOL surface, SMD
   Dimitrios Liakos       : Extrapolation schemes; Compound Job, initial MDCI parallelization
   Dimitrios Manganas     : Further ROCIS development; embedding schemes
   Dimitrios Pantazis     : SARC Basis sets
   Taras Petrenko         : DFT Hessian,TD-DFT gradient, ASA, ECA, R-Raman, ABS, FL, XAS/XES, NRVS
   Peter Pinski           : DLPNO-MP2, DLPNO-MP2 Gradient
   Christoph Reimann      : Effective Core Potentials
   Marius Retegan         : Local ZFS, SOC
   Christoph Riplinger    : Optimizer, TS searches, QM/MM, DLPNO-CCSD(T), (RO)-DLPNO pert. Triples
   Tobias Risthaus        : Range-separated hybrids, TD-DFT gradient, RPA, STAB
   Michael Roemelt        : Original ROCIS implementation
   Masaaki Saitow         : Open-shell DLPNO-CCSD energy and density
   Barbara Sandhoefer     : DKH picture change effects
   Avijit Sen             : IP-ROCIS
   Kantharuban Sivalingam : CASSCF convergence, NEVPT2, FIC-MRCI
   Bernardo de Souza      : ESD, SOC TD-DFT
   Georgi Stoychev        : AutoAux, RI-MP2 NMR
   Willem Van den Heuvel  : Paramagnetic NMR
   Boris Wezisla          : Elementary symmetry handling
   Frank Wennmohs         : Technical directorship


 We gratefully acknowledge several colleagues who have allowed us to
 interface, adapt or use parts of their codes:
   Stefan Grimme, W. Hujo, H. Kruse,             : VdW corrections, initial TS optimization,
                  C. Bannwarth                     DFT functionals, gCP, sTDA/sTD-DF
   Ed Valeev, F. Pavosevic, A. Kumar             : LibInt (2-el integral package), F12 methods
   Garnet Chan, S. Sharma, J. Yang, R. Olivares  : DMRG
   Ulf Ekstrom                                   : XCFun DFT Library
   Mihaly Kallay                                 : mrcc  (arbitrary order and MRCC methods)
   Andreas Klamt, Michael Diedenhofen            : otool_cosmo (COSMO solvation model)
   Jiri Pittner, Ondrej Demel                    : Mk-CCSD
   Frank Weinhold                                : gennbo (NPA and NBO analysis)
   Christopher J. Cramer and Donald G. Truhlar   : smd solvation model
   Lars Goerigk                                  : TD-DFT with DH, B97 family of functionals
   V. Asgeirsson, H. Jonsson                     : NEB implementation
   FAccTs GmbH                                   : IRC, NEB, NEB-TS, Multilevel, MM, QM/MM, CI optimization
   S Lehtola, MJT Oliveira, MAL Marques          : LibXC Library


 Your calculation uses the libint2 library for the computation of 2-el integrals
 For citations please refer to: http://libint.valeyev.net

 Your ORCA version has been built with support for libXC version: 4.2.3
 For citations please refer to: https://tddft.org/programs/libxc/

 This ORCA versions uses:
   CBLAS   interface :  Fast vector & matrix operations
   LAPACKE interface :  Fast linear algebra routines
   SCALAPACK package :  Parallel linear algebra routines


Your calculation utilizes the geometrical counterpoise correction gCP
Please cite in your paper:
H.Kruse, S. Grimme J.Chem.Phys., 136, (2012), 154101 
   

Your calculation utilizes the atom-pairwise dispersion correction
with the Becke-Johnson damping scheme (D3BJ)
Cite in your paper:
S.Grimme, S.Ehrlich, L.Goerigk, J Comput Chem, (2011), 32, 1456–1465 
S.Grimme, J.Antony, S.Ehrlich and H.Krieg, J.Chem.Phys., 132, (2010), 154104 
   

Your calculation utilizes the SMD solvation module
Please cite in your paper:
A.V. Marenich, C.J. Cramer, D.G. Truhlar J. Phys. Chem. B, 113, (2009), 6378 

----- Orbital basis set information -----
Your calculation utilizes the basis: MINIX,
   a combination of small basis sets by S. Grimme (see manual for definitions).

================================================================================
                                        WARNINGS
                       Please study these warnings very carefully!
================================================================================


WARNING: your system is open-shell and RHF/RKS was chosen
  ===> : WILL SWITCH to UHF/UKS


INFO   : the flag for use of LIBINT has been found!

================================================================================
                                       INPUT FILE
================================================================================
NAME = CDIWPLDID.inp
|  1> !HF-3c CPCM KDIIS SmallPrint
|  2> %PAL NPROCS 15 END
|  3> %maxcore 10000
|  4> %CPCM
|  5> SMD TRUE
|  6> SMDSOLVENT "WATER"
|  7> END
|  8> 
|  9> %scf
| 10> SCFmode Direct
| 11> maxiter 10000
| 12> 
| 13> end
| 14> 
| 15> %geom
| 16> 
| 17> Constraints
| 18> {C 2 C}
| 19> {C 15 C}
| 20> {C 27 C}
| 21> {C 46 C}
| 22> {C 70 C}
| 23> {C 84 C}
| 24> {C 103 C}
| 25> {C 115 C}
| 26> {C 134 C}
| 27> 
| 28> end
| 29> 
| 30> maxiter 10000
| 31> 
| 32> end
| 33> 
| 34> * xyz 0 2
| 35>    N        0.00000         0.00000         0.00000
| 36>    C        1.46558         0.00000         0.00000
| 37>    C        1.88737         0.00000         1.48155
| 38>    O        1.07572         0.00000         2.40700
| 39>    H        1.78897         -0.94074         -0.46356
| 40>    C        2.02524         1.21477         -0.75197
| 41>    H        1.50229         1.35735         -1.70252
| 42>    S        3.80281         1.07033         -1.14996
| 43>    H        1.88346         2.13119         -0.16676
| 44>    H        3.86529         2.15326         -1.94061
| 45>    H        -0.46146         0.13304         0.89717
| 46>    H        -0.34000         0.08381         -0.95801
| 47>    H        -0.34000         0.94706         -0.16699
| 48>    N        3.18695         -0.00000         1.80818
| 49>    C        3.58789         0.00022         3.21646
| 50>    C        5.12928         0.00016         3.21899
| 51>    O        5.79961         -0.00005         2.18731
| 52>    C        3.04121         -1.22580         3.94660
| 53>    C        3.05573         -1.02701         5.43450
| 54>    O        3.55944         -0.10091         6.05001
| 55>    O        2.46894         -2.04834         6.08723
| 56>    H        3.23270         0.93690         3.66277
| 57>    H        3.63024         -2.11861         3.70779
| 58>    H        2.00047         -1.40896         3.65525
| 59>    H        3.90935         -0.19908         1.11962
| 60>    N        5.79737         0.00032         4.38057
| 61>    C        7.25762         0.00004         4.38296
| 62>    C        7.69672         0.00034         5.85987
| 63>    O        6.90099         0.00073         6.79765
| 64>    C        7.83460         1.17868         3.55599
| 65>    C        9.36792         1.08154         3.41641
| 66>    C        9.93693         1.99207         2.33557
| 67>    H        7.57959         -0.94839         3.93375
| 68>    C        7.40934         2.54340         4.11624
| 69>    H        9.64681         0.05031         3.16845
| 70>    H        9.85418         1.32769         4.36733
| 71>    H        9.78017         3.04827         2.57138
| 72>    H        9.47946         1.78086         1.36399
| 73>    H        11.01606         1.83185         2.24238
| 74>    H        5.33332         0.39073         5.19596
| 75>    H        7.40760         1.10325         2.54629
| 76>    H        7.70819         3.35522         3.44600
| 77>    H        7.85992         2.73464         5.09533
| 78>    H        6.32177         2.60852         4.22358
| 79>    N        9.00001         0.00016         6.17138
| 80>    C        9.41709         0.00066         7.57426
| 81>    C        10.95530         0.00030         7.56729
| 82>    O        11.62016         -0.00030         6.53126
| 83>    C        8.87327         -1.22484         8.32408
| 84>    H        9.45686         -2.11686         8.05971
| 85>    H        7.84518         -1.43742         8.00253
| 86>    C        8.86034         -1.06168         9.81566
| 87>    C        9.74473         -1.62170         10.71747
| 88>    N        9.37245         -1.24117         11.97909
| 89>    H        9.83476         -1.51834         12.83394
| 90>    C        8.25664         -0.43966         11.92410
| 91>    C        7.90820         -0.31265         10.57954
| 92>    C        6.77486         0.45771         10.24778
| 93>    H        6.46809         0.57535         9.21078
| 94>    C        6.03453         1.06779         11.26673
| 95>    H        5.15680         1.65591         11.00953
| 96>    C        6.40853         0.92308         12.60028
| 97>    H        5.81696         1.40174         13.37741
| 98>    C        7.52922         0.16653         12.95565
| 99>    H        7.81314         0.05134         13.99644
|100>    H        10.60024         -2.26810         10.56890
|101>    H        9.69426         -0.27363         5.48095
|102>    H        9.06773         0.93815         8.02360
|103>    N        11.63056         0.00063         8.72471
|104>    C        13.08623         0.00007         8.71810
|105>    C        13.67742         0.00057         10.14187
|106>    O        13.01498         0.00136         11.17411
|107>    H        13.44879         -0.89656         8.20240
|108>    C        11.07550         1.26883         8.30319
|109>    H        10.64923         1.13858         7.30246
|110>    H        10.28447         1.59031         8.98714
|111>    C        12.26926         2.21150         8.28384
|112>    H        12.41161         2.65895         9.27492
|113>    H        12.15414         3.02059         7.55740
|114>    C        13.44155         1.28372         7.96316
|115>    H        14.40202         1.72374         8.24594
|116>    H        13.46005         1.08559         6.88424
|117>    N        15.00611         0.00015         10.31563
|118>    C        15.56724         0.00085         11.66698
|119>    C        17.08817         0.00009         11.46728
|120>    O        17.62127         -0.00089         10.35916
|121>    H        15.25119         0.92849         12.15463
|122>    H        15.53839         -0.46942         9.58908
|123>    C        15.07023         -1.23283         12.43708
|124>    H        13.98146         -1.29702         12.29872
|125>    H        15.47222         -2.14346         11.97221
|126>    C        15.32137         -1.29393         13.95819
|127>    H        14.65311         -2.07790         14.34147
|128>    C        14.95177         -0.00246         14.68485
|129>    H        14.97434         -0.15360         15.76961
|130>    H        13.94136         0.32188         14.41501
|131>    H        15.64786         0.80943         14.45336
|132>    C        16.73859         -1.73608         14.31865
|133>    H        16.80479         -1.95814         15.38972
|134>    H        17.48199         -0.96660         14.10375
|135>    H        17.01631         -2.64564         13.77615
|136>    N        17.90355         0.00049         12.53065
|137>    C        19.35533         -0.00045         12.34003
|138>    C        19.96912         0.00033         13.75394
|139>    O        19.28800         0.00152         14.77854
|140>    C        19.80920         1.22484         11.54772
|141>    C        21.18070         1.02509         10.97094
|142>    O        21.94513         0.09883         11.18979
|143>    O        21.54750         2.04572         10.17266
|144>    H        19.62373         -0.93759         11.83758
|145>    H        19.82401         2.11808         12.18254
|146>    H        19.12897         1.40770         10.70782
|147>    H        17.55814         0.20036         13.46679
|148>    N        21.30042         -0.00027         13.90643
|149>    C        21.88189         0.00069         15.24591
|150>    C        23.41181         -0.00035         15.06310
|151>    O        23.95698         -0.00172         13.96065
|152>    C        21.35118         -1.17714         16.10441
|153>    C        21.83136         -1.07919         17.56723
|154>    C        21.06455         -1.98876         18.51894
|155>    H        21.59764         0.94957         15.71902
|156>    C        21.69620         -2.54243         15.49274
|157>    H        21.71479         -0.04767         17.92089
|158>    H        22.89705         -1.32573         17.63653
|159>    H        21.21840         -3.04518         18.28223
|160>    H        19.99130         -1.77713         18.48429
|161>    H        21.40716         -1.82797         19.54639
|162>    H        21.86466         -0.39142         13.15725
|163>    H        20.25496         -1.10126         16.11294
|164>    H        21.19917         -3.35367         16.03350
|165>    H        22.77362         -2.73408         15.51807
|166>    H        21.36327         -2.60812         14.45186
|167>    N        24.21477         0.00023         16.13587
|168>    C        25.66867         -0.00098         15.96214
|169>    C        26.26598         0.00012         17.38309
|170>    O        25.57300         0.00170         18.39970
|171>    C        26.13190         1.22402         15.17482
|172>    C        27.50997         1.02390         14.61407
|173>    O        28.27168         0.09759         14.84205
|174>    O        27.88619         2.04425         13.81982
|175>    H        25.94274         -0.93830         15.46311
|176>    H        26.13947         2.11743         15.80951
|177>    H        25.46150         1.40674         14.32701
|178>    H        23.85853         0.20041         17.06788
|179>    O        27.61378         -0.00073         17.47597
|180> *
|181> 
|182>                          ****END OF INPUT****
================================================================================

                       ****************************
                       * Single Point Calculation *
                       ****************************

---------------------------------
CARTESIAN COORDINATES (ANGSTROEM)
---------------------------------
  N      0.000000    0.000000    0.000000
  C      1.465580    0.000000    0.000000
  C      1.887370    0.000000    1.481550
  O      1.075720    0.000000    2.407000
  H      1.788970   -0.940740   -0.463560
  C      2.025240    1.214770   -0.751970
  H      1.502290    1.357350   -1.702520
  S      3.802810    1.070330   -1.149960
  H      1.883460    2.131190   -0.166760
  H      3.865290    2.153260   -1.940610
  H     -0.461460    0.133040    0.897170
  H     -0.340000    0.083810   -0.958010
  H     -0.340000    0.947060   -0.166990
  N      3.186950   -0.000000    1.808180
  C      3.587890    0.000220    3.216460
  C      5.129280    0.000160    3.218990
  O      5.799610   -0.000050    2.187310
  C      3.041210   -1.225800    3.946600
  C      3.055730   -1.027010    5.434500
  O      3.559440   -0.100910    6.050010
  O      2.468940   -2.048340    6.087230
  H      3.232700    0.936900    3.662770
  H      3.630240   -2.118610    3.707790
  H      2.000470   -1.408960    3.655250
  H      3.909350   -0.199080    1.119620
  N      5.797370    0.000320    4.380570
  C      7.257620    0.000040    4.382960
  C      7.696720    0.000340    5.859870
  O      6.900990    0.000730    6.797650
  C      7.834600    1.178680    3.555990
  C      9.367920    1.081540    3.416410
  C      9.936930    1.992070    2.335570
  H      7.579590   -0.948390    3.933750
  C      7.409340    2.543400    4.116240
  H      9.646810    0.050310    3.168450
  H      9.854180    1.327690    4.367330
  H      9.780170    3.048270    2.571380
  H      9.479460    1.780860    1.363990
  H     11.016060    1.831850    2.242380
  H      5.333320    0.390730    5.195960
  H      7.407600    1.103250    2.546290
  H      7.708190    3.355220    3.446000
  H      7.859920    2.734640    5.095330
  H      6.321770    2.608520    4.223580
  N      9.000010    0.000160    6.171380
  C      9.417090    0.000660    7.574260
  C     10.955300    0.000300    7.567290
  O     11.620160   -0.000300    6.531260
  C      8.873270   -1.224840    8.324080
  H      9.456860   -2.116860    8.059710
  H      7.845180   -1.437420    8.002530
  C      8.860340   -1.061680    9.815660
  C      9.744730   -1.621700   10.717470
  N      9.372450   -1.241170   11.979090
  H      9.834760   -1.518340   12.833940
  C      8.256640   -0.439660   11.924100
  C      7.908200   -0.312650   10.579540
  C      6.774860    0.457710   10.247780
  H      6.468090    0.575350    9.210780
  C      6.034530    1.067790   11.266730
  H      5.156800    1.655910   11.009530
  C      6.408530    0.923080   12.600280
  H      5.816960    1.401740   13.377410
  C      7.529220    0.166530   12.955650
  H      7.813140    0.051340   13.996440
  H     10.600240   -2.268100   10.568900
  H      9.694260   -0.273630    5.480950
  H      9.067730    0.938150    8.023600
  N     11.630560    0.000630    8.724710
  C     13.086230    0.000070    8.718100
  C     13.677420    0.000570   10.141870
  O     13.014980    0.001360   11.174110
  H     13.448790   -0.896560    8.202400
  C     11.075500    1.268830    8.303190
  H     10.649230    1.138580    7.302460
  H     10.284470    1.590310    8.987140
  C     12.269260    2.211500    8.283840
  H     12.411610    2.658950    9.274920
  H     12.154140    3.020590    7.557400
  C     13.441550    1.283720    7.963160
  H     14.402020    1.723740    8.245940
  H     13.460050    1.085590    6.884240
  N     15.006110    0.000150   10.315630
  C     15.567240    0.000850   11.666980
  C     17.088170    0.000090   11.467280
  O     17.621270   -0.000890   10.359160
  H     15.251190    0.928490   12.154630
  H     15.538390   -0.469420    9.589080
  C     15.070230   -1.232830   12.437080
  H     13.981460   -1.297020   12.298720
  H     15.472220   -2.143460   11.972210
  C     15.321370   -1.293930   13.958190
  H     14.653110   -2.077900   14.341470
  C     14.951770   -0.002460   14.684850
  H     14.974340   -0.153600   15.769610
  H     13.941360    0.321880   14.415010
  H     15.647860    0.809430   14.453360
  C     16.738590   -1.736080   14.318650
  H     16.804790   -1.958140   15.389720
  H     17.481990   -0.966600   14.103750
  H     17.016310   -2.645640   13.776150
  N     17.903550    0.000490   12.530650
  C     19.355330   -0.000450   12.340030
  C     19.969120    0.000330   13.753940
  O     19.288000    0.001520   14.778540
  C     19.809200    1.224840   11.547720
  C     21.180700    1.025090   10.970940
  O     21.945130    0.098830   11.189790
  O     21.547500    2.045720   10.172660
  H     19.623730   -0.937590   11.837580
  H     19.824010    2.118080   12.182540
  H     19.128970    1.407700   10.707820
  H     17.558140    0.200360   13.466790
  N     21.300420   -0.000270   13.906430
  C     21.881890    0.000690   15.245910
  C     23.411810   -0.000350   15.063100
  O     23.956980   -0.001720   13.960650
  C     21.351180   -1.177140   16.104410
  C     21.831360   -1.079190   17.567230
  C     21.064550   -1.988760   18.518940
  H     21.597640    0.949570   15.719020
  C     21.696200   -2.542430   15.492740
  H     21.714790   -0.047670   17.920890
  H     22.897050   -1.325730   17.636530
  H     21.218400   -3.045180   18.282230
  H     19.991300   -1.777130   18.484290
  H     21.407160   -1.827970   19.546390
  H     21.864660   -0.391420   13.157250
  H     20.254960   -1.101260   16.112940
  H     21.199170   -3.353670   16.033500
  H     22.773620   -2.734080   15.518070
  H     21.363270   -2.608120   14.451860
  N     24.214770    0.000230   16.135870
  C     25.668670   -0.000980   15.962140
  C     26.265980    0.000120   17.383090
  O     25.573000    0.001700   18.399700
  C     26.131900    1.224020   15.174820
  C     27.509970    1.023900   14.614070
  O     28.271680    0.097590   14.842050
  O     27.886190    2.044250   13.819820
  H     25.942740   -0.938300   15.463110
  H     26.139470    2.117430   15.809510
  H     25.461500    1.406740   14.327010
  H     23.858530    0.200410   17.067880
  O     27.613780   -0.000730   17.475970

----------------------------
CARTESIAN COORDINATES (A.U.)
----------------------------
  NO LB      ZA    FRAG     MASS         X           Y           Z
   0 N     7.0000    0    14.007    0.000000    0.000000    0.000000
   1 C     6.0000    0    12.011    2.769545    0.000000    0.000000
   2 C     6.0000    0    12.011    3.566612    0.000000    2.799724
   3 O     8.0000    0    15.999    2.032816    0.000000    4.548571
   4 H     1.0000    0     1.008    3.380663   -1.777741   -0.876001
   5 C     6.0000    0    12.011    3.827149    2.295583   -1.421017
   6 H     1.0000    0     1.008    2.838917    2.565020   -3.217297
   7 S    16.0000    0    32.060    7.186269    2.022631   -2.173109
   8 H     1.0000    0     1.008    3.559224    4.027365   -0.315131
   9 H     1.0000    0     1.008    7.304340    4.069072   -3.667221
  10 H     1.0000    0     1.008   -0.872033    0.251409    1.695406
  11 H     1.0000    0     1.008   -0.642507    0.158378   -1.810377
  12 H     1.0000    0     1.008   -0.642507    1.789684   -0.315565
  13 N     7.0000    0    14.007    6.022463   -0.000000    3.416965
  14 C     6.0000    0    12.011    6.780129    0.000416    6.078229
  15 C     6.0000    0    12.011    9.692934    0.000302    6.083010
  16 O     8.0000    0    15.999   10.959675   -0.000094    4.133417
  17 C     6.0000    0    12.011    5.747054   -2.316426    7.457993
  18 C     6.0000    0    12.011    5.774493   -1.940768   10.269717
  19 O     8.0000    0    15.999    6.726367   -0.190692   11.432862
  20 O     8.0000    0    15.999    4.665620   -3.870802   11.503198
  21 H     1.0000    0     1.008    6.108918    1.770484    6.921632
  22 H     1.0000    0     1.008    6.860159   -4.003593    7.006708
  23 H     1.0000    0     1.008    3.780340   -2.662549    6.907421
  24 H     1.0000    0     1.008    7.387601   -0.376207    2.115775
  25 N     7.0000    0    14.007   10.955442    0.000605    8.278078
  26 C     6.0000    0    12.011   13.714914    0.000076    8.282594
  27 C     6.0000    0    12.011   14.544693    0.000643   11.073549
  28 O     8.0000    0    15.999   13.040981    0.001380   12.845697
  29 C     6.0000    0    12.011   14.805248    2.227382    6.719847
  30 C     6.0000    0    12.011   17.702803    2.043814    6.456079
  31 C     6.0000    0    12.011   18.778076    3.764467    4.413588
  32 H     1.0000    0     1.008   14.323349   -1.792197    7.433710
  33 C     6.0000    0    12.011   14.001623    4.806329    7.778566
  34 H     1.0000    0     1.008   18.229829    0.095072    5.987503
  35 H     1.0000    0     1.008   18.621701    2.508970    8.253058
  36 H     1.0000    0     1.008   18.481843    5.760395    4.859204
  37 H     1.0000    0     1.008   17.913583    3.365338    2.577568
  38 H     1.0000    0     1.008   20.817336    3.461695    4.237484
  39 H     1.0000    0     1.008   10.078514    0.738373    9.818941
  40 H     1.0000    0     1.008   13.998335    2.084840    4.811791
  41 H     1.0000    0     1.008   14.566368    6.340447    6.511996
  42 H     1.0000    0     1.008   14.853096    5.167721    9.628778
  43 H     1.0000    0     1.008   11.946414    4.929388    7.981410
  44 N     7.0000    0    14.007   17.007554    0.000302   11.662218
  45 C     6.0000    0    12.011   17.795721    0.001247   14.313277
  46 C     6.0000    0    12.011   20.702517    0.000567   14.300106
  47 O     8.0000    0    15.999   21.958920   -0.000567   12.342293
  48 C     6.0000    0    12.011   16.768050   -2.314612   15.730232
  49 H     1.0000    0     1.008   17.870875   -4.000286   15.230645
  50 H     1.0000    0     1.008   14.825242   -2.716330   15.122590
  51 C     6.0000    0    12.011   16.743616   -2.006284   18.548909
  52 C     6.0000    0    12.011   18.414871   -3.064569   20.253083
  53 N     7.0000    0    14.007   17.711364   -2.345471   22.637199
  54 H     1.0000    0     1.008   18.585003   -2.869247   24.252632
  55 C     6.0000    0    12.011   15.602788   -0.830837   22.533283
  56 C     6.0000    0    12.011   14.944332   -0.590823   19.992433
  57 C     6.0000    0    12.011   12.802630    0.864947   19.365498
  58 H     1.0000    0     1.008   12.222919    1.087254   17.405852
  59 C     6.0000    0    12.011   11.403609    2.017831   21.291034
  60 H     1.0000    0     1.008    9.744940    3.129216   20.804997
  61 C     6.0000    0    12.011   12.110367    1.744368   23.811078
  62 H     1.0000    0     1.008   10.992461    2.648905   25.279641
  63 C     6.0000    0    12.011   14.228164    0.314696   24.482630
  64 H     1.0000    0     1.008   14.764695    0.097019   26.449438
  65 H     1.0000    0     1.008   20.031551   -4.286088   19.972327
  66 H     1.0000    0     1.008   18.319496   -0.517086   10.357494
  67 H     1.0000    0     1.008   17.135526    1.772847   15.162407
  68 N     7.0000    0    14.007   21.978573    0.001191   16.487312
  69 C     6.0000    0    12.011   24.729391    0.000132   16.474821
  70 C     6.0000    0    12.011   25.846578    0.001077   19.165357
  71 O     8.0000    0    15.999   24.594748    0.002570   21.116008
  72 H     1.0000    0     1.008   25.414530   -1.694253   15.500290
  73 C     6.0000    0    12.011   20.929662    2.397741   15.690755
  74 H     1.0000    0     1.008   20.124128    2.151604   13.799650
  75 H     1.0000    0     1.008   19.434832    3.005250   16.983233
  76 C     6.0000    0    12.011   23.185541    4.179129   15.654189
  77 H     1.0000    0     1.008   23.454544    5.024687   17.527059
  78 H     1.0000    0     1.008   22.967996    5.708088   14.281416
  79 C     6.0000    0    12.011   25.400848    2.425879   15.048192
  80 H     1.0000    0     1.008   27.215874    3.257397   15.582568
  81 H     1.0000    0     1.008   25.435808    2.051468   13.009328
  82 N     7.0000    0    14.007   28.357438    0.000283   19.493716
  83 C     6.0000    0    12.011   29.417820    0.001606   22.047397
  84 C     6.0000    0    12.011   32.291961    0.000170   21.670019
  85 O     8.0000    0    15.999   33.299374   -0.001682   19.575975
  86 H     1.0000    0     1.008   28.820572    1.754592   22.968922
  87 H     1.0000    0     1.008   29.363302   -0.887075   18.120735
  88 C     6.0000    0    12.011   28.478607   -2.329711   23.502675
  89 H     1.0000    0     1.008   26.421130   -2.451013   23.241213
  90 H     1.0000    0     1.008   29.238258   -4.050552   22.624198
  91 C     6.0000    0    12.011   28.953193   -2.445173   26.377156
  92 H     1.0000    0     1.008   27.690365   -3.926662   27.101451
  93 C     6.0000    0    12.011   28.254751   -0.004649   27.750345
  94 H     1.0000    0     1.008   28.297402   -0.290262   29.800244
  95 H     1.0000    0     1.008   26.345352    0.608265   27.240421
  96 H     1.0000    0     1.008   29.570170    1.529601   27.312892
  97 C     6.0000    0    12.011   31.631351   -3.280716   27.058327
  98 H     1.0000    0     1.008   31.756451   -3.700348   29.082356
  99 H     1.0000    0     1.008   33.036173   -1.826609   26.652225
 100 H     1.0000    0     1.008   32.156166   -4.999535   26.033151
 101 N     7.0000    0    14.007   33.832806    0.000926   23.679497
 102 C     6.0000    0    12.011   36.576273   -0.000850   23.319277
 103 C     6.0000    0    12.011   37.736168    0.000624   25.991180
 104 O     8.0000    0    15.999   36.449038    0.002872   27.927393
 105 C     6.0000    0    12.011   37.433963    2.314612   21.822028
 106 C     6.0000    0    12.011   40.025722    1.937139   20.732072
 107 O     8.0000    0    15.999   41.470286    0.186762   21.145639
 108 O     8.0000    0    15.999   40.718874    3.865851   19.223541
 109 H     1.0000    0     1.008   37.083475   -1.771788   22.369784
 110 H     1.0000    0     1.008   37.461950    4.002591   23.021664
 111 H     1.0000    0     1.008   36.148515    2.660167   20.234847
 112 H     1.0000    0     1.008   33.180076    0.378626   25.448545
 113 N     7.0000    0    14.007   40.251960   -0.000510   26.279344
 114 C     6.0000    0    12.011   41.350779    0.001304   28.810595
 115 C     6.0000    0    12.011   44.241909   -0.000661   28.465134
 116 O     8.0000    0    15.999   45.272131   -0.003250   26.381805
 117 C     6.0000    0    12.011   40.347883   -2.224472   30.432924
 118 C     6.0000    0    12.011   41.255292   -2.039374   33.197254
 119 C     6.0000    0    12.011   39.806231   -3.758212   34.995725
 120 H     1.0000    0     1.008   40.813625    1.794427   29.704643
 121 C     6.0000    0    12.011   40.999876   -4.804496   29.277036
 122 H     1.0000    0     1.008   41.035006   -0.090083   33.865574
 123 H     1.0000    0     1.008   43.269154   -2.505267   33.328212
 124 H     1.0000    0     1.008   40.096965   -5.754556   34.548408
 125 H     1.0000    0     1.008   37.778082   -3.358289   34.930246
 126 H     1.0000    0     1.008   40.453670   -3.454363   36.937324
 127 H     1.0000    0     1.008   41.318219   -0.739677   24.863599
 128 H     1.0000    0     1.008   38.276327   -2.081080   30.449044
 129 H     1.0000    0     1.008   40.060626   -6.337518   30.298924
 130 H     1.0000    0     1.008   43.035905   -5.166662   29.324902
 131 H     1.0000    0     1.008   40.370730   -4.928633   27.310058
 132 N     7.0000    0    14.007   45.759284    0.000435   30.492375
 133 C     6.0000    0    12.011   48.506757   -0.001852   30.164073
 134 C     6.0000    0    12.011   49.635509    0.000227   32.849279
 135 O     8.0000    0    15.999   48.325966    0.003213   34.770394
 136 C     6.0000    0    12.011   49.382134    2.313063   28.676254
 137 C     6.0000    0    12.011   51.986309    1.934891   27.616590
 138 O     8.0000    0    15.999   53.425733    0.184418   28.047410
 139 O     8.0000    0    15.999   52.697262    3.863073   26.115675
 140 H     1.0000    0     1.008   49.024674   -1.773130   29.221043
 141 H     1.0000    0     1.008   49.396440    4.001363   29.875644
 142 H     1.0000    0     1.008   48.115262    2.658353   27.074125
 143 H     1.0000    0     1.008   45.086088    0.378720   32.253619
 144 O     8.0000    0    15.999   52.182482   -0.001380   33.024797

--------------------------------
INTERNAL COORDINATES (ANGSTROEM)
--------------------------------
 N      0   0   0     0.000000000000     0.00000000     0.00000000
 C      1   0   0     1.465580000000     0.00000000     0.00000000
 C      2   1   0     1.540421113397   105.89139260     0.00000000
 O      3   2   1     1.230948181281   122.85678302     0.00000000
 H      2   1   3     1.097479254155   107.13752009   116.23228084
 C      2   1   3     1.534387287943   111.39188675   238.24155912
 H      6   2   1     1.094235377513   110.76696714   314.22562030
 S      6   2   1     1.827296926775   113.51437031   194.31990438
 H      6   2   1     1.096539068570   110.66737207    72.77144150
 H      8   6   2     1.342299727259    96.30377943   171.14722920
 H      1   2   3     1.017624185100   116.96640565     8.43483813
 H      1   2   3     1.020003566758   109.47114980   175.00029763
 H      1   2   3     1.020004070433   109.47113980    99.99986914
 N      3   2   1     1.339998258693   119.99960641   180.00000085
 C     14   3   2     1.464242292245   119.99996765   179.99005965
 C     15  14   3     1.541392077507   105.98579749   180.00018400
 O     16  15  14     1.230327588653   122.91959360     0.00000000
 C     15  14   3     1.528099631045   111.19033371    59.38425330
 C     18  15  14     1.501191095264   111.33833312   198.32950520
 O     19  18  15     1.220752855495   127.17065992   352.12445130
 O     19  18  15     1.346660286004   112.07166829   174.51915097
 H     15  14   3     1.096686817008   107.62902984   296.34981089
 H     18  15  14     1.095945369578   110.92905280    77.28705207
 H     18  15  14     1.096162467748   110.28724628   317.13103596
 H     14   3   2     1.017648996462   121.56941820   346.72601504
 N     16  15  14     1.340004615701   119.99967276   180.00040658
 C     26  16  15     1.460251982707   119.99940342   179.98988950
 C     27  26  16     1.540802403977   106.65150948   179.99931246
 O     28  27  26     1.229885243996   123.12681984     0.00000000
 C     27  26  16     1.551121384966   111.77466495    54.93137255
 C     30  27  26     1.542721289929   111.72179261   186.89037295
 C     31  30  27     1.523500038267   113.43873922   165.20757955
 H     27  26  16     1.097712972457   107.02598132   295.38554068
 C     30  27  26     1.535313260706   112.20066132    61.00888804
 H     31  30  27     1.096676391011   109.41577778    44.73427695
 H     31  30  27     1.096032598283   110.38412096   287.08142782
 H     32  31  30     1.093498282440   111.76120925    64.24336590
 H     32  31  30     1.094466153611   110.99833899   302.91955179
 H     32  31  30     1.094932135523   109.93934882   183.55454141
 H     26  16  15     1.016180703763   117.90010238   334.24283483
 H     30  27  26     1.098868861557   107.04833521   304.18333859
 H     34  30  27     1.094342127719   111.11698196   187.81355105
 H     34  30  27     1.094628842165   111.57217660    67.46902798
 H     34  30  27     1.094792672107   111.33428911   306.58892036
 N     28  27  26     1.340001244999   120.00026434   179.99947587
 C     45  28  27     1.463566968335   119.99988099   179.99027949
 C     46  45  28     1.538225833420   106.29772994   180.00049442
 O     47  46  45     1.231014760472   122.94946014     0.00000000
 C     46  45  28     1.536170717987   111.51308514    59.07241962
 H     49  46  45     1.098257012452   110.01976965    76.42800232
 H     49  46  45     1.097977097666   110.05891494   320.40429343
 C     49  46  45     1.500532994272   113.67220076   199.50408243
 C     52  49  46     1.381676282130   126.81337671   256.21179501
 N     53  52  49     1.369335789242   108.34240698   180.85657217
 H     54  53  52     1.010604901779   125.36308270   178.97448916
 C     54  53  52     1.374945139378   110.22924075     0.00000000
 C     56  54  53     1.394770076859   107.11998587     0.20772426
 C     57  56  54     1.409957014522   118.51496986   179.32288066
 H     58  57  56     1.087803292190   120.66901888   180.35700687
 C     58  57  56     1.399480338483   119.47752660   359.90935836
 H     60  58  57     1.087403755419   119.37747603   180.41766096
 C     60  58  57     1.392541771941   120.65517981     0.14236917
 H     62  60  58     1.087658722854   119.49990844   180.27430568
 C     62  60  58     1.398070747673   120.99343942   359.96490015
 H     64  62  60     1.084953052717   120.73455023   180.39379989
 H     53  52  49     1.082498667436   131.17160803     0.02682518
 H     45  28  27     1.016679699561   120.41884151   341.82508628
 H     46  45  28     1.096743518467   107.59162881   296.30269553
 N     47  46  45     1.339998967500   120.00044404   180.00027900
 C     69  47  46     1.455685115195   119.99988867   179.99003251
 C     70  69  47     1.541631239629   112.28944051   179.99990001
 O     71  70  69     1.226518159385   124.76006471     0.00000000
 H     70  69  47     1.096057298000   109.46514584   299.85903822
 C     69  47  46     1.447101224517    63.59773630   281.91201813
 H     74  69  47     1.095505229700   108.12785733   354.13391052
 H     74  69  47     1.094013461435   110.65622527   113.37820086
 C     74  69  47     1.521204814941   104.22786380   235.32805109
 H     77  74  69     1.096683450864   110.07189297   272.50624310
 H     77  74  69     1.093432355521   112.60463193   151.70056348
 C     77  74  69     1.529011195152   103.19791153    29.56186116
 H     80  77  74     1.093656595875   112.02230915   199.72322752
 H     80  77  74     1.097117183030   109.19353406    79.90095402
 N     71  70  69     1.340003667943   120.00020972   179.99997351
 C     83  71  70     1.463220485573   120.00059700   179.98980683
 C     84  83  71     1.533984593306   105.06977999   179.99978422
 O     85  84  83     1.229685530857   123.17174030     0.00000000
 H     84  83  71     1.094626006726   107.52460020   297.34562699
 H     83  71  70     1.015722839066   115.27774726   329.29424772
 C     84  83  71     1.536892739426   109.77740730    58.59790491
 H     89  84  83     1.099401636619   107.70196596   311.92055514
 H     89  84  83     1.098611429897   109.57277294    65.74565073
 C     89  84  83     1.542912875603   118.23866182   191.35231417
 H     92  89  84     1.099128721716   105.84690320   164.00496990
 C     92  89  84     1.527263460081   113.34031433    47.20247196
 H     94  92  89     1.095471114224   110.45593324   169.76606321
 H     94  92  89     1.094960469286   110.88791544    50.45657731
 H     94  92  89     1.094209431645   111.88984299   289.33750314
 C     92  89  84     1.527723981124   113.27028775   279.70096818
 H     98  92  89     1.095848542683   110.19997412   191.44051032
 H     98  92  89     1.091295120671   112.42056639    72.03962250
 H     98  92  89     1.094867134405   111.02850754   310.42861001
 N     85  84  83     1.340000172127   120.00034764   179.99989112
 C    102  85  84     1.464241112795   120.00036212   179.99030567
 C    103 102  85     1.541389068535   105.98584135   180.00028832
 O    104 103 102     1.230337770899   122.91931038     0.00000000
 C    103 102  85     1.528099701296   111.19067445    59.38433524
 C    106 103 102     1.501195350679   111.33833817   198.32949372
 O    107 106 103     1.220739994839   127.17010221   352.12454730
 O    107 106 103     1.346654668168   112.07110942   174.51883287
 H    103 102  85     1.096688625864   107.62864177   296.34957132
 H    106 103 102     1.095944098073   110.92901706    77.28664149
 H    106 103 102     1.096167251153   110.28709567   317.13089038
 H    102  85  84     1.017651307964   121.56881921   346.72594163
 N    104 103 102     1.340004944058   120.00034621   180.00020445
 C    114 104 103     1.460244826356   120.00000327   179.98998464
 C    115 114 104     1.540803616331   106.65173253   179.99973885
 O    116 115 114     1.229881379768   123.12672962     0.00000000
 C    115 114 104     1.551115360958   111.77465768    54.93133424
 C    118 115 114     1.542727904493   111.72167609   186.89045011
 C    119 118 115     1.523504868748   113.43834242   165.20762681
 H    115 114 104     1.097726919138   107.02587501   295.38596408
 C    118 115 114     1.535316180270   112.20117899    61.00906794
 H    119 118 115     1.096675645257   109.41542373    44.73483906
 H    119 118 115     1.096029031413   110.38395793   287.08127522
 H    120 119 118     1.093491958361   111.76141894    64.24399418
 H    120 119 118     1.094464911224   110.99848933   302.91895848
 H    120 119 118     1.094937687131   109.93895030   183.55474193
 H    114 104 103     1.016186878729   117.89938338   334.24358167
 H    118 115 114     1.098876163951   107.04856259   304.18351682
 H    122 118 115     1.094335659704   111.11742967   187.81408961
 H    122 118 115     1.094625592520   111.57165458    67.46803488
 H    122 118 115     1.094800774296   111.33355550   306.58933963
 N    116 115 114     1.339992750316   120.00057802   179.99991843
 C    133 116 115     1.464243417947   120.00042917   179.98998403
 C    134 133 116     1.541388772698   105.98577234   179.99987555
 O    135 134 133     1.230333153621   122.91950581     0.00000000
 C    134 133 116     1.528096795134   111.19044011    59.38453019
 C    137 134 133     1.501188030128   111.33812699   198.33000802
 O    138 137 134     1.220748631210   127.17060291   352.12355753
 O    138 137 134     1.346658335808   112.07157063   174.51889540
 H    134 133 116     1.096683221445   107.62815359   296.34959173
 H    137 134 133     1.095933451036   110.92942364    77.28687908
 H    137 134 133     1.096177245932   110.28689429   317.13060889
 H    133 116 115     1.017654956309   121.56885188   346.72611472
 O    135 134 133     1.350996764208   116.74202821   179.99999692

---------------------------
INTERNAL COORDINATES (A.U.)
---------------------------
 N      0   0   0     0.000000000000     0.00000000     0.00000000
 C      1   0   0     2.769544827352     0.00000000     0.00000000
 C      2   1   0     2.910974035231   105.89139260     0.00000000
 O      3   2   1     2.326154947670   122.85678302     0.00000000
 H      2   1   3     2.073935228013   107.13752009   116.23228084
 C      2   1   3     2.899571757582   111.39188675   238.24155912
 H      6   2   1     2.067805189547   110.76696714   314.22562030
 S      6   2   1     3.453090756960   113.51437031   194.31990438
 H      6   2   1     2.072158534742   110.66737207    72.77144150
 H      8   6   2     2.536578874157    96.30377943   171.14722920
 H      1   2   3     1.923031017093   116.96640565     8.43483813
 H      1   2   3     1.927527396796   109.47114980   175.00029763
 H      1   2   3     1.927528348603   109.47113980    99.99986914
 N      3   2   1     2.532229728861   119.99960641   180.00000085
 C     14   3   2     2.767016926049   119.99996765   179.99005965
 C     15  14   3     2.912808891483   105.98579749   180.00018400
 O     16  15  14     2.324982197561   122.91959360     0.00000000
 C     15  14   3     2.887689808021   111.19033371    59.38425330
 C     18  15  14     2.836840044730   111.33833312   198.32950520
 O     19  18  15     2.306888574089   127.17065992   352.12445130
 O     19  18  15     2.544819135975   112.07166829   174.51915097
 H     15  14   3     2.072437738828   107.62902984   296.34981089
 H     18  15  14     2.071036606242   110.92905280    77.28705207
 H     18  15  14     2.071446862328   110.28724628   317.13103596
 H     14   3   2     1.923077903773   121.56941820   346.72601504
 N     16  15  14     2.532241741865   119.99967276   180.00040658
 C     26  16  15     2.759476333832   119.99940342   179.98988950
 C     27  26  16     2.911694570003   106.65150948   179.99931246
 O     28  27  26     2.324146287304   123.12681984     0.00000000
 C     27  26  16     2.931194618055   111.77466495    54.93137255
 C     30  27  26     2.915320738935   111.72179261   186.89037295
 C     31  30  27     2.878997837343   113.43873922   165.20757955
 H     27  26  16     2.074376891596   107.02598132   295.38554068
 C     30  27  26     2.901321592512   112.20066132    61.00888804
 H     31  30  27     2.072418036547   109.41577778    44.73427695
 H     31  30  27     2.071201444606   110.38412096   287.08142782
 H     32  31  30     2.066412281726   111.76120925    64.24336590
 H     32  31  30     2.068241293171   110.99833899   302.91955179
 H     32  31  30     2.069121871367   109.93934882   183.55454141
 H     26  16  15     1.920303232687   117.90010238   334.24283483
 H     30  27  26     2.076561205437   107.04833521   304.18333859
 H     34  30  27     2.068006918201   111.11698196   187.81355105
 H     34  30  27     2.068548729984   111.57217660    67.46902798
 H     34  30  27     2.068858323707   111.33428911   306.58892036
 N     28  27  26     2.532235372162   120.00026434   179.99947587
 C     45  28  27     2.765740748806   119.99988099   179.99027949
 C     46  45  28     2.906825557286   106.29772994   180.00049442
 O     47  46  45     2.326280764107   122.94946014     0.00000000
 C     46  45  28     2.902941951944   111.51308514    59.07241962
 H     49  46  45     2.075404978193   110.01976965    76.42800232
 H     49  46  45     2.074876015907   110.05891494   320.40429343
 C     49  46  45     2.835596414088   113.67220076   199.50408243
 C     52  49  46     2.610989778960   126.81337671   256.21179501
 N     53  52  49     2.587669627045   108.34240698   180.85657217
 H     54  53  52     1.909766493961   125.36308270   178.97448916
 C     54  53  52     2.598269762591   110.22924075     0.00000000
 C     56  54  53     2.635733465051   107.11998587     0.20772426
 C     57  56  54     2.664432618048   118.51496986   179.32288066
 H     58  57  56     2.055650309818   120.66901888   180.35700687
 C     58  57  56     2.644634569540   119.47752660   359.90935836
 H     60  58  57     2.054895294740   119.37747603   180.41766096
 C     60  58  57     2.631522579014   120.65517981     0.14236917
 H     62  60  58     2.055377113364   119.49990844   180.27430568
 C     62  60  58     2.641970828949   120.99343942   359.96490015
 H     64  62  60     2.050264137797   120.73455023   180.39379989
 H     53  52  49     2.045626021788   131.17160803     0.02682518
 H     45  28  27     1.921246198088   120.41884151   341.82508628
 H     46  45  28     2.072544889056   107.59162881   296.30269553
 N     47  46  45     2.532231068311   120.00044404   180.00027900
 C     69  47  46     2.750846204944   119.99988867   179.99003251
 C     70  69  47     2.913260842396   112.28944051   179.99990001
 O     71  70  69     2.317783419518   124.76006471     0.00000000
 H     70  69  47     2.071248120307   109.46514584   299.85903822
 C     69  47  46     2.734625002400    63.59773630   281.91201813
 H     74  69  47     2.070204862411   108.12785733   354.13391052
 H     74  69  47     2.067385828935   110.65622527   113.37820086
 C     74  69  47     2.874660493841   104.22786380   235.32805109
 H     77  74  69     2.072431377738   110.07189297   272.50624310
 H     77  74  69     2.066287697903   112.60463193   151.70056348
 C     77  74  69     2.889412414537   103.19791153    29.56186116
 H     80  77  74     2.066711450760   112.02230915   199.72322752
 H     80  77  74     2.073251012746   109.19353406    79.90095402
 N     71  70  69     2.532239950862   120.00020972   179.99997351
 C     83  71  70     2.765085991276   120.00059700   179.98980683
 C     84  83  71     2.898810775003   105.06977999   179.99978422
 O     85  84  83     2.323768884166   123.17174030     0.00000000
 H     84  83  71     2.068543371779   107.52460020   297.34562699
 H     83  71  70     1.919437993803   115.27774726   329.29424772
 C     84  83  71     2.904306374727   109.77740730    58.59790491
 H     89  84  83     2.077568004394   107.70196596   311.92055514
 H     89  84  83     2.076074730101   109.57277294    65.74565073
 C     89  84  83     2.915682783390   118.23866182   191.35231417
 H     92  89  84     2.077052269969   105.84690320   164.00496990
 C     92  89  84     2.886109673899   113.34031433    47.20247196
 H     94  92  89     2.070140393506   110.45593324   169.76606321
 H     94  92  89     2.069175414421   110.88791544    50.45657731
 H     94  92  89     2.067756158962   111.88984299   289.33750314
 C     92  89  84     2.886979932547   113.27028775   279.70096818
 H     98  92  89     2.070853629927   110.19997412   191.44051032
 H     98  92  89     2.062248909352   112.42056639    72.03962250
 H     98  92  89     2.068999037056   111.02850754   310.42861001
 N     85  84  83     2.532233344727   120.00034764   179.99989112
 C    102  85  84     2.767014697211   120.00036212   179.99030567
 C    103 102  85     2.912803205352   105.98584135   180.00028832
 O    104 103 102     2.325001439218   122.91931038     0.00000000
 C    103 102  85     2.887689940776   111.19067445    59.38433524
 C    106 103 102     2.836848086299   111.33833817   198.32949372
 O    107 106 103     2.306864270971   127.17010221   352.12454730
 O    107 106 103     2.544808519805   112.07110942   174.51883287
 H    103 102  85     2.072441157070   107.62864177   296.34957132
 H    106 103 102     2.071034203444   110.92901706    77.28664149
 H    106 103 102     2.071455901652   110.28709567   317.13089038
 H    102  85  84     1.923082271878   121.56881921   346.72594163
 N    104 103 102     2.532242362370   120.00034621   180.00020445
 C    114 104 103     2.759462810289   120.00000327   179.98998464
 C    115 114 104     2.911696861022   106.65173253   179.99973885
 O    116 115 114     2.324138984971   123.12672962     0.00000000
 C    115 114 104     2.931183234329   111.77465768    54.93133424
 C    118 115 114     2.915333238649   111.72167609   186.89045011
 C    119 118 115     2.879006965630   113.43834242   165.20762681
 H    115 114 104     2.074403247004   107.02587501   295.38596408
 C    118 115 114     2.901327109689   112.20117899    61.00906794
 H    119 118 115     2.072416627277   109.41542373    44.73483906
 H    119 118 115     2.071194704197   110.38395793   287.08127522
 H    120 119 118     2.066400330947   111.76141894    64.24399418
 H    120 119 118     2.068238945399   110.99848933   302.91895848
 H    120 119 118     2.069132362387   109.93895030   183.55474193
 H    114 104 103     1.920314901681   117.89938338   334.24358167
 H    118 115 114     2.076575004962   107.04856259   304.18351682
 H    122 118 115     2.067994695425   111.11742967   187.81408961
 H    122 118 115     2.068542589044   111.57165458    67.46803488
 H    122 118 115     2.068873634625   111.33355550   306.58933963
 N    116 115 114     2.532219319538   120.00057802   179.99991843
 C    133 116 115     2.767019053316   120.00042917   179.98998403
 C    134 133 116     2.912802646301   105.98577234   179.99987555
 O    135 134 133     2.324992713828   122.91950581     0.00000000
 C    134 133 116     2.887684448927   111.19044011    59.38453019
 C    137 134 133     2.836834252463   111.33812699   198.33000802
 O    138 137 134     2.306880591345   127.17060291   352.12355753
 O    138 137 134     2.544815450638   112.07157063   174.51889540
 H    134 133 116     2.072430944198   107.62815359   296.34959173
 H    137 134 133     2.071014083462   110.92942364    77.28687908
 H    137 134 133     2.071474789048   110.28689429   317.13060889
 H    133 116 115     1.923089166251   121.56885188   346.72611472
 O    135 134 133     2.553013892167   116.74202821   179.99999692

---------------------
BASIS SET INFORMATION
---------------------
There are 5 groups of distinct atoms

 Group   1 Type N   : 6s3p contracted to 2s1p pattern {33/3}
 Group   2 Type C   : 6s3p contracted to 2s1p pattern {33/3}
 Group   3 Type O   : 6s3p contracted to 2s1p pattern {33/3}
 Group   4 Type H   : 3s contracted to 1s pattern {3}
 Group   5 Type S   : 9s6p1d contracted to 3s2p1d pattern {333/33/1}

Atom   0N    basis set group =>   1
Atom   1C    basis set group =>   2
Atom   2C    basis set group =>   2
Atom   3O    basis set group =>   3
Atom   4H    basis set group =>   4
Atom   5C    basis set group =>   2
Atom   6H    basis set group =>   4
Atom   7S    basis set group =>   5
Atom   8H    basis set group =>   4
Atom   9H    basis set group =>   4
Atom  10H    basis set group =>   4
Atom  11H    basis set group =>   4
Atom  12H    basis set group =>   4
Atom  13N    basis set group =>   1
Atom  14C    basis set group =>   2
Atom  15C    basis set group =>   2
Atom  16O    basis set group =>   3
Atom  17C    basis set group =>   2
Atom  18C    basis set group =>   2
Atom  19O    basis set group =>   3
Atom  20O    basis set group =>   3
Atom  21H    basis set group =>   4
Atom  22H    basis set group =>   4
Atom  23H    basis set group =>   4
Atom  24H    basis set group =>   4
Atom  25N    basis set group =>   1
Atom  26C    basis set group =>   2
Atom  27C    basis set group =>   2
Atom  28O    basis set group =>   3
Atom  29C    basis set group =>   2
Atom  30C    basis set group =>   2
Atom  31C    basis set group =>   2
Atom  32H    basis set group =>   4
Atom  33C    basis set group =>   2
Atom  34H    basis set group =>   4
Atom  35H    basis set group =>   4
Atom  36H    basis set group =>   4
Atom  37H    basis set group =>   4
Atom  38H    basis set group =>   4
Atom  39H    basis set group =>   4
Atom  40H    basis set group =>   4
Atom  41H    basis set group =>   4
Atom  42H    basis set group =>   4
Atom  43H    basis set group =>   4
Atom  44N    basis set group =>   1
Atom  45C    basis set group =>   2
Atom  46C    basis set group =>   2
Atom  47O    basis set group =>   3
Atom  48C    basis set group =>   2
Atom  49H    basis set group =>   4
Atom  50H    basis set group =>   4
Atom  51C    basis set group =>   2
Atom  52C    basis set group =>   2
Atom  53N    basis set group =>   1
Atom  54H    basis set group =>   4
Atom  55C    basis set group =>   2
Atom  56C    basis set group =>   2
Atom  57C    basis set group =>   2
Atom  58H    basis set group =>   4
Atom  59C    basis set group =>   2
Atom  60H    basis set group =>   4
Atom  61C    basis set group =>   2
Atom  62H    basis set group =>   4
Atom  63C    basis set group =>   2
Atom  64H    basis set group =>   4
Atom  65H    basis set group =>   4
Atom  66H    basis set group =>   4
Atom  67H    basis set group =>   4
Atom  68N    basis set group =>   1
Atom  69C    basis set group =>   2
Atom  70C    basis set group =>   2
Atom  71O    basis set group =>   3
Atom  72H    basis set group =>   4
Atom  73C    basis set group =>   2
Atom  74H    basis set group =>   4
Atom  75H    basis set group =>   4
Atom  76C    basis set group =>   2
Atom  77H    basis set group =>   4
Atom  78H    basis set group =>   4
Atom  79C    basis set group =>   2
Atom  80H    basis set group =>   4
Atom  81H    basis set group =>   4
Atom  82N    basis set group =>   1
Atom  83C    basis set group =>   2
Atom  84C    basis set group =>   2
Atom  85O    basis set group =>   3
Atom  86H    basis set group =>   4
Atom  87H    basis set group =>   4
Atom  88C    basis set group =>   2
Atom  89H    basis set group =>   4
Atom  90H    basis set group =>   4
Atom  91C    basis set group =>   2
Atom  92H    basis set group =>   4
Atom  93C    basis set group =>   2
Atom  94H    basis set group =>   4
Atom  95H    basis set group =>   4
Atom  96H    basis set group =>   4
Atom  97C    basis set group =>   2
Atom  98H    basis set group =>   4
Atom  99H    basis set group =>   4
Atom 100H    basis set group =>   4
Atom 101N    basis set group =>   1
Atom 102C    basis set group =>   2
Atom 103C    basis set group =>   2
Atom 104O    basis set group =>   3
Atom 105C    basis set group =>   2
Atom 106C    basis set group =>   2
Atom 107O    basis set group =>   3
Atom 108O    basis set group =>   3
Atom 109H    basis set group =>   4
Atom 110H    basis set group =>   4
Atom 111H    basis set group =>   4
Atom 112H    basis set group =>   4
Atom 113N    basis set group =>   1
Atom 114C    basis set group =>   2
Atom 115C    basis set group =>   2
Atom 116O    basis set group =>   3
Atom 117C    basis set group =>   2
Atom 118C    basis set group =>   2
Atom 119C    basis set group =>   2
Atom 120H    basis set group =>   4
Atom 121C    basis set group =>   2
Atom 122H    basis set group =>   4
Atom 123H    basis set group =>   4
Atom 124H    basis set group =>   4
Atom 125H    basis set group =>   4
Atom 126H    basis set group =>   4
Atom 127H    basis set group =>   4
Atom 128H    basis set group =>   4
Atom 129H    basis set group =>   4
Atom 130H    basis set group =>   4
Atom 131H    basis set group =>   4
Atom 132N    basis set group =>   1
Atom 133C    basis set group =>   2
Atom 134C    basis set group =>   2
Atom 135O    basis set group =>   3
Atom 136C    basis set group =>   2
Atom 137C    basis set group =>   2
Atom 138O    basis set group =>   3
Atom 139O    basis set group =>   3
Atom 140H    basis set group =>   4
Atom 141H    basis set group =>   4
Atom 142H    basis set group =>   4
Atom 143H    basis set group =>   4
Atom 144O    basis set group =>   3
--------------------------------------------------------------------------
WARNING: No preset parameters were found for the device that Open MPI
detected:

  Local host:            c0705a-s23
  Device name:           mlx5_0
  Device vendor ID:      0x02c9
  Device vendor part ID: 4123

Default device parameters will be used, which may result in lower
performance.  You can edit any of the files specified by the
btl_openib_device_param_files MCA parameter to set values for your
device.

NOTE: You can turn off this warning by setting the MCA parameter
      btl_openib_warn_no_device_params_found to 0.
--------------------------------------------------------------------------
--------------------------------------------------------------------------
WARNING: There was an error initializing an OpenFabrics device.

  Local host:   c0705a-s23
  Local device: mlx5_0
--------------------------------------------------------------------------


           ************************************************************
           *        Program running with 15 parallel MPI-processes    *
           *              working on a common directory               *
           ************************************************************
------------------------------------------------------------------------------
                           ORCA GTO INTEGRAL CALCULATION
------------------------------------------------------------------------------

                         BASIS SET STATISTICS AND STARTUP INFO

 # of primitive gaussian shells          ...  898
 # of primitive gaussian functions       ... 1364
 # of contracted shells                  ...  300
 # of contracted basis functions         ...  458
 Highest angular momentum                ...    2
 Maximum contraction depth               ...    3
 Integral package used                   ... LIBINT
 Integral threshhold            Thresh   ...  1.000e-10
 Primitive cut-off              TCut     ...  1.000e-11


------------------------------ INTEGRAL EVALUATION ----------------------------


 * One electron integrals 
 Pre-screening matrix                    ... done
 Shell pair data                         ... done (   0.008 sec)

[c0705a-s23.ufhpc:99933] 14 more processes have sent help message help-mpi-btl-openib.txt / no device params found
[c0705a-s23.ufhpc:99933] Set MCA parameter "orte_base_help_aggregate" to 0 to see all help / error messages
[c0705a-s23.ufhpc:99933] 14 more processes have sent help message help-mpi-btl-openib.txt / error in device init
--------------------------------------------------------------------------
WARNING: No preset parameters were found for the device that Open MPI
detected:

  Local host:            c0705a-s23
  Device name:           mlx5_0
  Device vendor ID:      0x02c9
  Device vendor part ID: 4123

Default device parameters will be used, which may result in lower
performance.  You can edit any of the files specified by the
btl_openib_device_param_files MCA parameter to set values for your
device.

NOTE: You can turn off this warning by setting the MCA parameter
      btl_openib_warn_no_device_params_found to 0.
--------------------------------------------------------------------------
--------------------------------------------------------------------------
WARNING: There was an error initializing an OpenFabrics device.

  Local host:   c0705a-s23
  Local device: mlx5_0
--------------------------------------------------------------------------


           ************************************************************
           *        Program running with 15 parallel MPI-processes    *
           *              working on a common directory               *
           ************************************************************
-------------------------------------------------------------------------------
                                 ORCA SCF
-------------------------------------------------------------------------------

------------
SCF SETTINGS
------------
Hamiltonian:
 Ab initio Hamiltonian  Method          .... Hartree-Fock(GTOs)


General Settings:
 Integral files         IntName         .... CDIWPLDID
 Hartree-Fock type      HFTyp           .... UHF
 Total Charge           Charge          ....    0
 Multiplicity           Mult            ....    2
 Number of Electrons    NEL             ....  577
 Basis Dimension        Dim             ....  458
 Nuclear Repulsion      ENuc            ....  12177.6045966225 Eh

Convergence Acceleration:
 DIIS                   CNVDIIS         .... off
 Newton-Raphson         CNVNR           .... off
 SOSCF                  CNVSOSCF        .... off
 Level Shifting         CNVShift        .... off
 Zerner damping         CNVZerner       .... off
 Static damping         CNVDamp         .... off
 Fernandez-Rico         CNVRico         .... off

SCF Procedure:
 Maximum # iterations   MaxIter         .... 10000
 SCF integral mode      SCFMode         .... Direct
   Integral package                     .... LIBINT
 Reset frequency        DirectResetFreq ....    20
 Integral Threshold     Thresh          ....  1.000e-10 Eh
 Primitive CutOff       TCut            ....  1.000e-11 Eh

Convergence Tolerance:
 Convergence Check Mode ConvCheckMode   .... All-Criteria
 Convergence forced     ConvForced      .... 0
 Energy Change          TolE            ....  1.000e-06 Eh
 Max Density Change     TolMaxP         ....  1.000e-05
 RMS Density Change     TolRMSP         ....  1.000e-06


Diagonalization of the overlap matrix:
Smallest eigenvalue                        ... 1.723e-01
Time for diagonalization                   ...    0.076 sec
Threshold for overlap eigenvalues          ... 1.000e-08
Number of eigenvalues below threshold      ... 0
Time for construction of square roots      ...    0.075 sec
Total time needed                          ...    0.151 sec

--------------------------------
INITIAL GUESS: MINIMAL BASIS EHT
--------------------------------
The minimal basis has 453 functions
EHT matrix was diagonalized
Basis set overlap was calculated now projecting the orbitals
Using GuessMode=FMatrix for the initial guess
C*T matrix was formed
Effective Fockian was calculated
Effective Fockian was diagonalized
Initial density was built
                      ------------------
                      INITIAL GUESS DONE
                      ------------------

--------------------
CPCM SOLVATION MODEL
--------------------
CPCM parameters:
  Epsilon                                         ...      78.3550
  Refrac                                          ...       1.3300
  Rsolv                                           ...       1.3000
  Surface type                                    ...    GEPOL SES
  Epsilon function type                           ...         CPCM
Solvent:                                     ... WATER
SMD-CDS solvent descriptors:
  Soln                                       ...    1.3328
  Soln25                                     ...    1.3323
  Sola                                       ...    0.0000
  Solb                                       ...    0.0000
  Solg                                       ...    0.0000
  Solc                                       ...    0.0000
  Solh                                       ...    0.0000
Radii:
 Radius for N  used is    3.5716 Bohr (=   1.8900 Ang.)
 Radius for C  used is    3.4960 Bohr (=   1.8500 Ang.)
 Radius for O  used is    2.8724 Bohr (=   1.5200 Ang.)
 Radius for H  used is    2.2677 Bohr (=   1.2000 Ang.)
 Radius for S  used is    4.7054 Bohr (=   2.4900 Ang.)
Calculating surface                               ...        done! (  0.9s)
GEPOL surface points                              ...         6619
GEPOL Volume                                      ...    7409.9553
GEPOL Surface-area                                ...    3565.8773
Calculating surface distance matrix               ...        done! (  0.4s)
Performing Cholesky decomposition & store         ...        [c0705a-s23.ufhpc:100553] 14 more processes have sent help message help-mpi-btl-openib.txt / no device params found
[c0705a-s23.ufhpc:100553] Set MCA parameter "orte_base_help_aggregate" to 0 to see all help / error messages
[c0705a-s23.ufhpc:100553] 14 more processes have sent help message help-mpi-btl-openib.txt / error in device init
done! (  4.4s)
Overall time for CPCM initialization              ...                 5.6s
--------------
SCF ITERATIONS
--------------
ITER       Energy         Delta-E        Max-DP      RMS-DP      [F,P]   Gradient Norm
               ***  Starting incremental Fock matrix formation  ***
                             ****Resetting KDIIS****
                             ****Turning on KDIIS(Cayley)****
  0  -4000.4052028233   0.000000000000 0.04022814  0.00069646  0.7864098   0.206604935
  1  -4001.8090606381  -1.403857814737 0.06201348  0.00109304  0.7114633   0.185613243
  2  -4003.6364117856  -1.827351147555 0.19410708  0.00184295  0.5738447   0.149627420
  3  -4005.7695660408  -2.133154255135 0.16868448  0.00253363  0.3521842   0.090798338
  4  -4006.9388335268  -1.169267486002 0.09752038  0.00092584  0.0671855   0.015563695
  5  -4007.0663844534  -0.127550926657 0.15875435  0.00122379  0.0622738   0.010375605
  6  -4007.1948914842  -0.128507030823 0.12335926  0.00092820  0.0513423   0.009837461
  7  -4007.3175309486  -0.122639464362 0.11444583  0.00056839  0.0600279   0.006727063
  8  -4007.3878504877  -0.070319539068 0.16764559  0.00082773  0.0544132   0.006051471
  9  -4007.4636031602  -0.075752672498 0.04433726  0.00030759  0.0330760   0.004101052
 10  -4007.4867947183  -0.023191558153 0.04734691  0.00029167  0.0309686   0.003068994
 11  -4007.5036967317  -0.016902013333 0.03897650  0.00021059  0.0332358   0.002579434
 12  -4007.5156835915  -0.011986859821 0.06657704  0.00022731  0.0245194   0.002125406
 13  -4007.5257942356  -0.010110644123 0.07210819  0.00027571  0.0222619   0.002342300
 14  -4007.5195070378   0.006287197824 0.04212431  0.00020842  0.0186608   0.001709482
 15  -4007.5216545197  -0.002147481885 0.06755597  0.00027587  0.0156540   0.001380391
 16  -4007.5279408384  -0.006286318701 0.03819430  0.00014881  0.0090436   0.000945666
 17  -4007.5303758385  -0.002435000159 0.01572254  0.00007493  0.0064925   0.000786002
 18  -4007.5315598329  -0.001183994344 0.00629660  0.00003584  0.0057535   0.000723373
 19  -4007.5321280244  -0.000568191523 0.01287368  0.00008003  0.0059282   0.000721828
               *** Restarting incremental Fock matrix formation ***
                             ****Resetting KDIIS****
 20  -4007.5309677389   0.001160285510 0.00119141  0.00000591  0.0055495   0.000686083
 21  -4007.5310581156  -0.000090376690 0.00136205  0.00000624  0.0055486   0.000684198
 22  -4007.5311526135  -0.000094497912 0.00523742  0.00002838  0.0055376   0.000680156
 23  -4007.5307813451   0.000371268389 0.01581602  0.00007960  0.0054736   0.000659969
 24  -4007.5309374674  -0.000156122275 0.00385408  0.00001851  0.0052640   0.000583642
 25  -4007.5311620682  -0.000224600853 0.00621784  0.00003270  0.0052717   0.000581352
 26  -4007.5307444734   0.000417594806 0.01108766  0.00007568  0.0051670   0.000582031
 27  -4007.5300025765   0.000741896933 0.03141270  0.00020073  0.0045649   0.000536123
 28  -4007.5294783756   0.000524200921 0.01718936  0.00010966  0.0025081   0.000376858
 29  -4007.5298917397  -0.000413364147 0.00660337  0.00003654  0.0025206   0.000322849
 30  -4007.5299616270  -0.000069887270 0.00346222  0.00001723  0.0024284   0.000298781
 31  -4007.5300725090  -0.000110882079 0.00496292  0.00002718  0.0024008   0.000296155
 32  -4007.5299001332   0.000172375808 0.02482987  0.00015747  0.0023949   0.000290078
 33  -4007.5290904882   0.000809645052 0.02934992  0.00020364  0.0020746   0.000273780
 34  -4007.5282711925   0.000819295689 0.00255501  0.00001785  0.0020199   0.000304731
 35  -4007.5283410332  -0.000069840685 0.00896729  0.00005330  0.0021955   0.000310180
 36  -4007.5280969118   0.000244121352 0.01657191  0.00010067  0.0021685   0.000331477
 37  -4007.5285459806  -0.000449068772 0.02098645  0.00011290  0.0016461   0.000254191
 38  -4007.5290723727  -0.000526392102 0.00166433  0.00000762  0.0015022   0.000234559
 39  -4007.5291100389  -0.000037666151 0.00231208  0.00001895  0.0014705   0.000231494
               *** Restarting incremental Fock matrix formation ***
                             ****Resetting KDIIS****
 40  -4007.5291191977  -0.000009158846 0.00050031  0.00000232  0.0016179   0.000244534
 41  -4007.5291321454  -0.000012947685 0.00018983  0.00000130  0.0016123   0.000242909
 42  -4007.5291384621  -0.000006316669 0.00328375  0.00001428  0.0016157   0.000238937
 43  -4007.5290646023   0.000073859756 0.00561453  0.00002793  0.0016742   0.000230483
 44  -4007.5289881559   0.000076446416 0.00158046  0.00000890  0.0018142   0.000214942
 45  -4007.5290322982  -0.000044142315 0.00561331  0.00003031  0.0018260   0.000214629
 46  -4007.5288829777   0.000149320484 0.00940345  0.00006649  0.0017930   0.000212069
 47  -4007.5286461431   0.000236834668 0.00619201  0.00003203  0.0014267   0.000196733
 48  -4007.5286259718   0.000020171208 0.00363902  0.00001717  0.0014557   0.000197294
 49  -4007.5286838087  -0.000057836848 0.00689565  0.00003168  0.0015007   0.000196170
 50  -4007.5288233707  -0.000139562014 0.00255914  0.00001211  0.0014742   0.000195504
 51  -4007.5288764307  -0.000053059947 0.00441561  0.00002173  0.0014897   0.000196293
 52  -4007.5287840055   0.000092425137 0.00958556  0.00005510  0.0014771   0.000196357
 53  -4007.5285791513   0.000204854258 0.00138987  0.00000629  0.0014764   0.000197655
 54  -4007.5286066760  -0.000027524723 0.00480512  0.00002167  0.0014741   0.000199198
 55  -4007.5285178559   0.000088820088 0.00692924  0.00003416  0.0014382   0.000193186
 56  -4007.5283807331   0.000137122770 0.00378543  0.00001878  0.0014987   0.000190072
 57  -4007.5284586974  -0.000077964291 0.01890644  0.00009137  0.0014548   0.000187181
 58  -4007.5288228288  -0.000364131414 0.00940451  0.00004920  0.0014639   0.000188073
 59  -4007.5289925496  -0.000169720756 0.00586501  0.00002946  0.0014402   0.000186239
               *** Restarting incremental Fock matrix formation ***
                             ****Resetting KDIIS****
 60  -4007.5288849931   0.000107556502 0.00039891  0.00000181  0.0015208   0.000193126
 61  -4007.5288928837  -0.000007890656 0.00109770  0.00000484  0.0015187   0.000190761
 62  -4007.5289136935  -0.000020809796 0.00617518  0.00002662  0.0015175   0.000188457
 63  -4007.5288023588   0.000111334758 0.01905644  0.00008316  0.0014664   0.000181537
 64  -4007.5284669987   0.000335360103 0.00870576  0.00004004  0.0013079   0.000177194
 65  -4007.5286123512  -0.000145352528 0.00181954  0.00000799  0.0015281   0.000194424
 66  -4007.5286220350  -0.000009683842 0.00889475  0.00003814  0.0013944   0.000182865
 67  -4007.5287780844  -0.000156049322 0.00315389  0.00001299  0.0013887   0.000185353
 68  -4007.5287603770   0.000017707408 0.00025535  0.00000120  0.0013728   0.000171983
 69  -4007.5287650873  -0.000004710303 0.00348447  0.00001527  0.0013721   0.000172181
 70  -4007.5288266399  -0.000061552611 0.03041610  0.00013502  0.0013792   0.000174480
 71  -4007.5283045394   0.000522100437 0.00291165  0.00001133  0.0014483   0.000174760
 72  -4007.5283011320   0.000003407457 0.01396131  0.00006098  0.0014259   0.000186779
 73  -4007.5285432343  -0.000242102349 0.01053524  0.00004859  0.0013606   0.000173971
 74  -4007.5287281806  -0.000184946313 0.00445619  0.00002484  0.0013837   0.000176082
 75  -4007.5287892196  -0.000061038935 0.00244791  0.00001088  0.0014177   0.000178971
 76  -4007.5288305837  -0.000041364167 0.04022671  0.00017614  0.0014294   0.000179524
 77  -4007.5281598871   0.000670696615 0.00845083  0.00004090  0.0015157   0.000188948
 78  -4007.5282795054  -0.000119618272 0.02252382  0.00009948  0.0014209   0.000188484
 79  -4007.5286730706  -0.000393565245 0.00809775  0.00003747  0.0013358   0.000180138
               *** Restarting incremental Fock matrix formation ***
                             ****Resetting KDIIS****
 80  -4007.5288212509  -0.000148180245 0.00034305  0.00000178  0.0013608   0.000177467
 81  -4007.5288285938  -0.000007342905 0.00020036  0.00000114  0.0013600   0.000176776
 82  -4007.5288330070  -0.000004413173 0.00918923  0.00004964  0.0013598   0.000175311
 83  -4007.5286402589   0.000192748083 0.02581439  0.00012636  0.0014428   0.000169753
 84  -4007.5281530924   0.000487166450 0.03076046  0.00013114  0.0017280   0.000199952
 85  -4007.5286767777  -0.000523685264 0.02496353  0.00011537  0.0016222   0.000210879
 86  -4007.5291463540  -0.000469576261 0.02791718  0.00013195  0.0016971   0.000218041
 87  -4007.5285856578   0.000560696205 0.00788599  0.00004262  0.0015125   0.000263009
 88  -4007.5287145687  -0.000128910930 0.02834752  0.00014000  0.0015320   0.000273362
 89  -4007.5282254089   0.000489159760 0.00825220  0.00004704  0.0018269   0.000238291
 90  -4007.5283978588  -0.000172449886 0.00905966  0.00006098  0.0016360   0.000224356
 91  -4007.5286106719  -0.000212813076 0.02169545  0.00010511  0.0014859   0.000205300
 92  -4007.5290325760  -0.000421904069 0.05418316  0.00026272  0.0014994   0.000199863
 93  -4007.5279722134   0.001060362552 0.00402884  0.00001787  0.0017253   0.000278631
 94  -4007.5280438712  -0.000071657761 0.10472147  0.00044167  0.0016781   0.000272759
 95  -4007.5296703449  -0.001626473756 0.01314791  0.00005277  0.0031079   0.000550689
 96  -4007.5294964211   0.000173923799 0.02054022  0.00010789  0.0027580   0.000472570
 97  -4007.5300800173  -0.000583596147 0.00790636  0.00004616  0.0028615   0.000528300
 98  -4007.5298052463   0.000274770952 0.12755255  0.00059069  0.0026938   0.000510532
 99  -4007.5272028812   0.002602365124 0.09729873  0.00043834  0.0029356   0.000517210
               *** Restarting incremental Fock matrix formation ***
                             ****Resetting KDIIS****
100  -4007.5289129709  -0.001710089727 0.00064733  0.00000358  0.0023177   0.000498574
101  -4007.5289472118  -0.000034240849 0.00154954  0.00001107  0.0022070   0.000468083
102  -4007.5290398632  -0.000092651438 0.00380523  0.00003180  0.0019261   0.000414303
103  -4007.5292612080  -0.000221344809 0.00733241  0.00005894  0.0017641   0.000302158
104  -4007.5295787893  -0.000317581334 0.02042483  0.00013961  0.0018559   0.000214904
105  -4007.5289014317   0.000677357675 0.00290953  0.00002012  0.0019867   0.000239338
106  -4007.5287997109   0.000101720763 0.00153361  0.00000868  0.0020361   0.000267504
107  -4007.5287721120   0.000027598861 0.01558412  0.00010555  0.0020349   0.000292649
108  -4007.5292858173  -0.000513705275 0.01896981  0.00011436  0.0018145   0.000200860
109  -4007.5288609697   0.000424847613 0.00995709  0.00006175  0.0019005   0.000216515
110  -4007.5291347782  -0.000273808516 0.00704433  0.00003691  0.0017566   0.000195874
111  -4007.5293015066  -0.000166728390 0.00112769  0.00000440  0.0017144   0.000201712
112  -4007.5292846243   0.000016882357 0.00136490  0.00000528  0.0017058   0.000200366
113  -4007.5293028960  -0.000018271704 0.00191141  0.00000910  0.0017389   0.000202453
114  -4007.5293439027  -0.000041006750 0.00621293  0.00003567  0.0017718   0.000205294
115  -4007.5291765255   0.000167377203 0.00077067  0.00000350  0.0017547   0.000199852
116  -4007.5291848743  -0.000008348770 0.00111916  0.00000651  0.0017629   0.000200750
117  -4007.5291564713   0.000028402962 0.00212610  0.00001122  0.0017666   0.000200701
118  -4007.5291155948   0.000040876549 0.00271415  0.00001410  0.0017663   0.000200823
119  -4007.5291567809  -0.000041186140 0.00169938  0.00001013  0.0017981   0.000199475
               *** Restarting incremental Fock matrix formation ***
                             ****Resetting KDIIS****
120  -4007.5292038441  -0.000047063143 0.00034370  0.00000196  0.0017853   0.000200784
121  -4007.5292133437  -0.000009499611 0.00112479  0.00000636  0.0017827   0.000200865
122  -4007.5292437427  -0.000030399011 0.00475213  0.00002565  0.0017792   0.000201694
123  -4007.5291221651   0.000121577602 0.01134702  0.00005682  0.0017876   0.000198057
124  -4007.5288675310   0.000254634089 0.00336743  0.00002261  0.0018623   0.000191276
125  -4007.5288358460   0.000031685012 0.00915076  0.00005433  0.0019636   0.000212296
126  -4007.5290667512  -0.000230905226 0.00481761  0.00001473  0.0017342   0.000193360
127  -4007.5290809913  -0.000014240078 0.00802983  0.00004840  0.0016984   0.000205855
128  -4007.5292496665  -0.000168675214 0.00836754  0.00004248  0.0017276   0.000192244
129  -4007.5290686269   0.000181039542 0.01032472  0.00005639  0.0017234   0.000183524
130  -4007.5288582890   0.000210337946 0.00290644  0.00001657  0.0017974   0.000181621
131  -4007.5288075625   0.000050726549 0.00951817  0.00004388  0.0017671   0.000190076
132  -4007.5289960176  -0.000188455191 0.00482152  0.00002548  0.0017124   0.000185889
133  -4007.5291053594  -0.000109341727 0.00582128  0.00003713  0.0016623   0.000192651
134  -4007.5289683404   0.000137019009 0.00247534  0.00001229  0.0017753   0.000181897
135  -4007.5290126550  -0.000044314592 0.00203566  0.00001224  0.0017880   0.000184507
136  -4007.5289699590   0.000042696000 0.00105850  0.00000680  0.0018023   0.000183026
137  -4007.5289507585   0.000019200490 0.02061802  0.00009801  0.0017936   0.000182911
138  -4007.5285356391   0.000415119409 0.02423756  0.00011178  0.0019837   0.000187174
139  -4007.5290110409  -0.000475401830 0.01605579  0.00008255  0.0018295   0.000192708
               *** Restarting incremental Fock matrix formation ***
                             ****Resetting KDIIS****
140  -4007.5293634528  -0.000352411872 0.00039651  0.00000198  0.0018023   0.000199237
141  -4007.5293728228  -0.000009370078 0.00179445  0.00000842  0.0018068   0.000198924
142  -4007.5293344431   0.000038379765 0.01744964  0.00008245  0.0018014   0.000195184
[...]
5457  -4007.5288203769   0.000299896684 0.08785895  0.00040740  0.0015142   0.000242602
5458  -4007.5270593312   0.001761045661 0.09514489  0.00042222  0.0027949   0.000394373
5459  -4007.5289171460  -0.001857814774 0.00756883  0.00004192  0.0017810   0.000285002
               *** Restarting incremental Fock matrix formation ***
                             ****Resetting KDIIS****
5460  -4007.5290848916  -0.000167745620 0.00061231  0.00000264  0.0019482   0.000288284
5461  -4007.5291012180  -0.000016326406 0.00026004  0.00000199  0.0019918   0.000286371
5462  -4007.5291105166  -0.000009298574 0.00450170  0.00001953  0.0020108   0.000277698
5463  -4007.5290209003   0.000089616277 0.00788522  0.00003327  0.0016863   0.000234803
5464  -4007.5289796103   0.000041289996 0.00395742  0.00002319  0.0014638   0.000190053
5465  -4007.5290800686  -0.000100458284 0.01604138  0.00008422  0.0015075   0.000191986
5466  -4007.5287287810   0.000351287546 0.02437104  0.00012604  0.0013955   0.000183666
5467  -4007.5282999853   0.000428795778 0.00882838  0.00004585  0.0013684   0.000193498
5468  -4007.5284267715  -0.000126786212 0.01033882  0.00004075  0.0013514   0.000198177
5469  -4007.5285805417  -0.000153770215 0.01069795  0.00004229  0.0015640   0.000221003
5470  -4007.5284343815   0.000146160184 0.00915326  0.00005007  0.0013901   0.000186127
5471  -4007.5286181134  -0.000183731900 0.01645598  0.00007979  0.0013825   0.000171161
5472  -4007.5289136737  -0.000295560322 0.03444131  0.00017160  0.0014743   0.000178245
5473  -4007.5283194334   0.000594240349 0.00938875  0.00004524  0.0014081   0.000188463
5474  -4007.5281730539   0.000146379465 0.02213964  0.00009357  0.0014180   0.000211362
5475  -4007.5285514783  -0.000378424359 0.01175363  0.00005038  0.0014546   0.000209571
5476  -4007.5283850690   0.000166409242 0.01573050  0.00008042  0.0014272   0.000188046
5477  -4007.5286920277  -0.000306958660 0.00300739  0.00001862  0.0014356   0.000176700
5478  -4007.5287345322  -0.000042504495 0.00260111  0.00001591  0.0014431   0.000174575
5479  -4007.5286963653   0.000038166923 0.00288322  0.00001277  0.0014330   0.000176074
               *** Restarting incremental Fock matrix formation ***
                             ****Resetting KDIIS****
5480  -4007.5287460112  -0.000049645919 0.00040390  0.00000165  0.0014511   0.000177646
5481  -4007.5287530624  -0.000007051167 0.00207741  0.00000817  0.0014550   0.000178089
5482  -4007.5287200854   0.000032976942 0.00320532  0.00001240  0.0014314   0.000175491
5483  -4007.5286717317   0.000048353729 0.03249660  0.00014741  0.0013943   0.000172145
5484  -4007.5281065181   0.000565213622 0.00062513  0.00000284  0.0014824   0.000178346
5485  -4007.5280957312   0.000010786883 0.01842625  0.00007907  0.0014882   0.000178625
5486  -4007.5283900951  -0.000294363909 0.00807617  0.00003777  0.0014436   0.000180272
5487  -4007.5285327377  -0.000142642573 0.00173936  0.00000759  0.0014302   0.000185473
5488  -4007.5285458009  -0.000013063260 0.01471897  0.00006545  0.0013838   0.000182262
5489  -4007.5288002294  -0.000254428427 0.01842398  0.00007887  0.0014334   0.000183101
5490  -4007.5284903440   0.000309885331 0.01936176  0.00008906  0.0013854   0.000167187
5491  -4007.5281492066   0.000341137410 0.00947919  0.00004104  0.0015003   0.000172742
5492  -4007.5283028844  -0.000153677819 0.02036653  0.00009709  0.0014391   0.000178384
5493  -4007.5286766541  -0.000373769716 0.00752068  0.00003835  0.0013519   0.000174421
5494  -4007.5285326630   0.000143991102 0.00582405  0.00002530  0.0013873   0.000176311
5495  -4007.5286166704  -0.000084007328 0.01046390  0.00004124  0.0014854   0.000187507
5496  -4007.5284500334   0.000166636952 0.00442878  0.00001947  0.0014533   0.000174243
5497  -4007.5283762665   0.000073766962 0.01043661  0.00004682  0.0014545   0.000170292
5498  -4007.5282041295   0.000172136981 0.01212019  0.00005545  0.0014895   0.000167404
5499  -4007.5284143855  -0.000210256034 0.02745185  0.00012441  0.0014104   0.000166546
               *** Restarting incremental Fock matrix formation ***
                             ****Resetting KDIIS****
5500  -4007.5288910788  -0.000476693260 0.00039197  0.00000168  0.0014438   0.000180378
5501  -4007.5288980463  -0.000006967555 0.00123247  0.00000488  0.0014494   0.000180219
5502  -4007.5288785536   0.000019492722 0.00595287  0.00002348  0.0014378   0.000177731
5503  -4007.5287866215   0.000091932132 0.02206791  0.00009662  0.0013677   0.000172139
5504  -4007.5284179907   0.000368630750 0.02816700  0.00012639  0.0013196   0.000169427
5505  -4007.5279407113   0.000477279374 0.04600441  0.00020119  0.0014987   0.000190639
5506  -4007.5287001863  -0.000759474905 0.02232036  0.00009477  0.0013222   0.000190742
5507  -4007.5290696402  -0.000369453929 0.02949577  0.00011847  0.0014913   0.000226050
5508  -4007.5286182083   0.000451431925 0.01760913  0.00007206  0.0012407   0.000184108
5509  -4007.5288865020  -0.000268293732 0.02215633  0.00009365  0.0014031   0.000181450
5510  -4007.5285264961   0.000360005915 0.10268249  0.00047671  0.0012987   0.000166588
5511  -4007.5263572564   0.002169239667 0.13782207  0.00061970  0.0033509   0.000569361
5512  -4007.5290940754  -0.002736819002 0.00109686  0.00000530  0.0014719   0.000238060
5513  -4007.5290914574   0.000002617981 0.00501759  0.00002516  0.0014470   0.000235552
5514  -4007.5291781524  -0.000086694962 0.01595896  0.00006430  0.0013797   0.000231801
5515  -4007.5294449362  -0.000266783810 0.00522501  0.00002251  0.0017201   0.000256922
5516  -4007.5294531872  -0.000008250965 0.08393124  0.00039016  0.0017165   0.000274164
5517  -4007.5278704206   0.001582766573 0.13523853  0.00064036  0.0020025   0.000307525
5518  -4007.5307598897  -0.002889469108 0.16628518  0.00078126  0.0028508   0.000426529
5519  -4007.5271188122   0.003641077536 0.06825101  0.00031853  0.0027963   0.000463298
               *** Restarting incremental Fock matrix formation ***
                             ****Resetting KDIIS****
5520  -4007.5285672059  -0.001448393708 0.00028776  0.00000192  0.0014856   0.000248917
5521  -4007.5285770252  -0.000009819286 0.00103412  0.00000545  0.0014910   0.000240010
5522  -4007.5286035762  -0.000026551022 0.00115313  0.00000682  0.0015039   0.000227291
5523  -4007.5286357814  -0.000032205232 0.00204245  0.00000971  0.0015212   0.000210986
5524  -4007.5286486405  -0.000012859041 0.00334723  0.00002167  0.0014806   0.000186306
5525  -4007.5287317599  -0.000083119420 0.00175167  0.00000850  0.0014605   0.000183353
5526  -4007.5287667990  -0.000035039169 0.01591755  0.00007472  0.0014558   0.000185767
5527  -4007.5284628158   0.000303983240 0.00515948  0.00002607  0.0014583   0.000174337
5528  -4007.5283691614   0.000093654357 0.00062111  0.00000385  0.0014916   0.000169494
5529  -4007.5283762901  -0.000007128696 0.00269186  0.00001278  0.0014883   0.000166848
5530  -4007.5284249575  -0.000048667332 0.01141869  0.00005163  0.0014756   0.000165972
5531  -4007.5286173566  -0.000192399097 0.00271020  0.00001583  0.0014628   0.000170415
5532  -4007.5285823689   0.000034987667 0.00108525  0.00000662  0.0014409   0.000168947
5533  -4007.5286057956  -0.000023426679 0.02417447  0.00011565  0.0014366   0.000169017
5534  -4007.5281658024   0.000439993158 0.02227962  0.00010554  0.0016392   0.000174582
5535  -4007.5285652188  -0.000399416354 0.01996779  0.00008876  0.0014287   0.000171250
5536  -4007.5289081315  -0.000342912739 0.06192518  0.00027993  0.0014505   0.000182931
5537  -4007.5277959637   0.001112167804 0.01134153  0.00006064  0.0018559   0.000233740
5538  -4007.5280575934  -0.000261629731 0.00051135  0.00000247  0.0015911   0.000185568
5539  -4007.5280631065  -0.000005513025 0.01135099  0.00006958  0.0015908   0.000185065
               *** Restarting incremental Fock matrix formation ***
                             ****Resetting KDIIS****
5540  -4007.5282717799  -0.000208673463 0.00034386  0.00000164  0.0014414   0.000177649
5541  -4007.5282783180  -0.000006538082 0.00102725  0.00000464  0.0014400   0.000174867
5542  -4007.5282963405  -0.000018022485 0.00148670  0.00000675  0.0014362   0.000171605
5543  -4007.5283223139  -0.000025973447 0.02031314  0.00008265  0.0014316   0.000167603
5544  -4007.5286458109  -0.000323496958 0.00555618  0.00002174  0.0015135   0.000185117
5545  -4007.5285660336   0.000079777274 0.01518315  0.00006968  0.0014096   0.000174811
5546  -4007.5288376369  -0.000271603243 0.07333851  0.00033043  0.0014103   0.000184825
5547  -4007.5275330437   0.001304593122 0.03751879  0.00016976  0.0020092   0.000238789
5548  -4007.5282123706  -0.000679326857 0.00591952  0.00004230  0.0014698   0.000190707
5549  -4007.5280543284   0.000158042158 0.01983910  0.00008225  0.0017572   0.000266370
5550  -4007.5283477372  -0.000293408738 0.04091206  0.00020559  0.0018309   0.000329813
5551  -4007.5291641791  -0.000816441877 0.00222673  0.00001218  0.0017309   0.000310582
5552  -4007.5291906038  -0.000026424756 0.09639390  0.00041970  0.0016801   0.000307664
5553  -4007.5274743794   0.001716224468 0.05698020  0.00025504  0.0022394   0.000258407
5554  -4007.5285051491  -0.001030769721 0.02002990  0.00011701  0.0013026   0.000192065
5555  -4007.5280505081   0.000454640998 0.04165141  0.00018816  0.0018707   0.000309431
5556  -4007.5287420245  -0.000691516392 0.01240104  0.00005999  0.0015485   0.000296573
5557  -4007.5290022362  -0.000260211719 0.02607130  0.00012992  0.0015496   0.000261062
5558  -4007.5295028077  -0.000500571562 0.13846554  0.00062031  0.0017903   0.000326269
5559  -4007.5267549217   0.002747886085 0.10366756  0.00045789  0.0032347   0.000496735
               *** Restarting incremental Fock matrix formation ***
                             ****Resetting KDIIS****
5560  -4007.5287361893  -0.001981267610 0.00038760  0.00000253  0.0019906   0.000358891
5561  -4007.5287537334  -0.000017544170 0.00132636  0.00000732  0.0018767   0.000339583
5562  -4007.5287996393  -0.000045905830 0.00319030  0.00001642  0.0016784   0.000306801
5563  -4007.5288928442  -0.000093204942 0.00277035  0.00001622  0.0017406   0.000257359
5564  -4007.5288963528  -0.000003508595 0.00337950  0.00001370  0.0017197   0.000195842
5565  -4007.5289175902  -0.000021237441 0.00060551  0.00000331  0.0016571   0.000179492
5566  -4007.5289060839   0.000011506319 0.00342734  0.00001815  0.0016412   0.000181383
5567  -4007.5289831991  -0.000077115206 0.02226814  0.00011448  0.0016494   0.000181992
5568  -4007.5285157205   0.000467478635 0.00945902  0.00005007  0.0017201   0.000187789
5569  -4007.5286955386  -0.000179818056 0.00402818  0.00002608  0.0016530   0.000198750
5570  -4007.5287640268  -0.000068488207 0.00454215  0.00001814  0.0016797   0.000186611
5571  -4007.5288292877  -0.000065260889 0.01625869  0.00006872  0.0017350   0.000203907
5572  -4007.5285756636   0.000253624021 0.01879113  0.00009532  0.0016701   0.000172809
5573  -4007.5289457749  -0.000370111299 0.02519157  0.00012561  0.0016205   0.000176468
5574  -4007.5284714650   0.000474309913 0.00686437  0.00003602  0.0016910   0.000176462
5575  -4007.5285909173  -0.000119452257 0.00098274  0.00000532  0.0016469   0.000171085
5576  -4007.5285776857   0.000013231555 0.00400513  0.00001670  0.0016550   0.000171927
5577  -4007.5285519991   0.000025686610 0.00288973  0.00001633  0.0017501   0.000193137
5578  -4007.5285460787   0.000005920391 0.02267013  0.00011194  0.0016940   0.000178509
5579  -4007.5289831883  -0.000437109559 0.03112048  0.00014931  0.0016265   0.000181417
               *** Restarting incremental Fock matrix formation ***
                             ****Resetting KDIIS****
5580  -4007.5284167502   0.000566438034 0.00034798  0.00000168  0.0017184   0.000180746
5581  -4007.5284238026  -0.000007052391 0.00135541  0.00000625  0.0017148   0.000180169
5582  -4007.5284501061  -0.000026303451 0.00308960  0.00001385  0.0017026   0.000179897
5583  -4007.5285084359  -0.000058329854 0.00756315  0.00004572  0.0016832   0.000180612
5584  -4007.5286841466  -0.000175710640 0.00572524  0.00003042  0.0015283   0.000182979
5585  -4007.5288055110  -0.000121364429 0.03244830  0.00016183  0.0014900   0.000184894
5586  -4007.5281565292   0.000648981802 0.02915769  0.00013838  0.0018862   0.000197667
5587  -4007.5287160382  -0.000559508998 0.01254549  0.00007241  0.0015826   0.000183419
5588  -4007.5284710837   0.000244954482 0.00834596  0.00005967  0.0019247   0.000226716
5589  -4007.5285522644  -0.000081180679 0.02192112  0.00011960  0.0016057   0.000191422
5590  -4007.5290005263  -0.000448261942 0.02755304  0.00013562  0.0015083   0.000188733
5591  -4007.5284813158   0.000519210561 0.09342114  0.00045909  0.0015735   0.000179717
5592  -4007.5259132680   0.002568047797 0.06779861  0.00029887  0.0051252   0.000687591
5593  -4007.5277820605  -0.001868792523 0.00863014  0.00004150  0.0025720   0.000357245
5594  -4007.5279065014  -0.000124440940 0.04484659  0.00022439  0.0024769   0.000342064
5595  -4007.5288705879  -0.000964086408 0.01214558  0.00006161  0.0016904   0.000264311
5596  -4007.5291169856  -0.000246397736 0.02262606  0.00009000  0.0017222   0.000266487
5597  -4007.5295455811  -0.000428595516 0.01512405  0.00005556  0.0020600   0.000336175
5598  -4007.5293128988   0.000232682281 0.08350268  0.00039865  0.0017677   0.000242022
5599  -4007.5275561090   0.001756789853 0.00375483  0.00001768  0.0027765   0.000376697
               *** Restarting incremental Fock matrix formation ***
                             ****Resetting KDIIS****
5600  -4007.5275689231  -0.000012814126 0.00040252  0.00000277  0.0027140   0.000360003
5601  -4007.5275890561  -0.000020132971 0.00134673  0.00000856  0.0026910   0.000339099
5602  -4007.5276460646  -0.000057008492 0.00413110  0.00002245  0.0026093   0.000309785
5603  -4007.5277841046  -0.000138040004 0.00426982  0.00002584  0.0024413   0.000267141
5604  -4007.5278913378  -0.000107233188 0.00630333  0.00003687  0.0021801   0.000219327
5605  -4007.5280194374  -0.000128099694 0.01150379  0.00006522  0.0018409   0.000189567
5606  -4007.5282660083  -0.000246570818 0.01058417  0.00005189  0.0016213   0.000183180
5607  -4007.5284580172  -0.000192008934 0.00427175  0.00002102  0.0016215   0.000183456
5608  -4007.5285368416  -0.000078824373 0.00377758  0.00001728  0.0016050   0.000181941
5609  -4007.5284698570   0.000066984558 0.00392541  0.00001560  0.0016364   0.000181202
5610  -4007.5285313085  -0.000061451456 0.00860425  0.00003532  0.0016988   0.000183294
5611  -4007.5283942854   0.000137023060 0.01255619  0.00005851  0.0015171   0.000175594
5612  -4007.5281750569   0.000219228493 0.00093208  0.00000489  0.0014473   0.000169308
5613  -4007.5281929101  -0.000017853151 0.00855584  0.00003884  0.0014290   0.000169257
5614  -4007.5283397031  -0.000146793049 0.00935499  0.00004093  0.0013388   0.000169313
5615  -4007.5284935755  -0.000153872420 0.00802267  0.00003286  0.0012825   0.000170718
5616  -4007.5283696739   0.000123901650 0.01168773  0.00004810  0.0013015   0.000169343
5617  -4007.5285529724  -0.000183298557 0.00616973  0.00002901  0.0013373   0.000174563
5618  -4007.5284440885   0.000108883900 0.00245583  0.00001518  0.0013196   0.000169134
5619  -4007.5284048615   0.000039227039 0.00572097  0.00002470  0.0013850   0.000165822
               *** Restarting incremental Fock matrix formation ***
                             ****Resetting KDIIS****
5620  -4007.5284981241  -0.000093262618 0.00037045  0.00000159  0.0013681   0.000166762
5621  -4007.5285043351  -0.000006210945 0.00231065  0.00000983  0.0013684   0.000166862
5622  -4007.5284669902   0.000037344831 0.00507842  0.00002148  0.0013683   0.000166087
5623  -4007.5283855991   0.000081391117 0.07073713  0.00033114  0.0013712   0.000164963
Warning: badly conditioned DIIS matrix, 1 vectors out of 5 destroyed
5624  -4007.5269025076   0.001483091529 0.09132209  0.00042303  0.0027728   0.000433192
5625  -4007.5287376996  -0.001835191963 0.01156001  0.00005164  0.0013122   0.000183440
5626  -4007.5285395310   0.000198168525 0.05208711  0.00023833  0.0013055   0.000179688
5627  -4007.5276319810   0.000907550079 0.00479014  0.00002916  0.0018109   0.000244468
5628  -4007.5277541874  -0.000122206444 0.02174125  0.00011016  0.0016584   0.000225558
5629  -4007.5272565180   0.000497669387 0.01703724  0.00007736  0.0022725   0.000325197
5630  -4007.5268518799   0.000404638117 0.07803435  0.00035268  0.0028180   0.000442989
5631  -4007.5283920348  -0.001540154954 0.01382037  0.00006043  0.0013584   0.000191897
5632  -4007.5286116522  -0.000219617368 0.01278686  0.00005845  0.0013440   0.000193644
5633  -4007.5288330129  -0.000221360639 0.06055147  0.00028469  0.0013895   0.000196138
5634  -4007.5277516797   0.001081333194 0.04797091  0.00022984  0.0018165   0.000263792
5635  -4007.5265128182   0.001238861480 0.01439054  0.00006965  0.0032884   0.000543601
5636  -4007.5260191387   0.000493679485 0.08741955  0.00041541  0.0039049   0.000680358
5637  -4007.5282011324  -0.002181993672 0.00495024  0.00002308  0.0014964   0.000243332
5638  -4007.5282829087  -0.000081776284 0.02481951  0.00011297  0.0014560   0.000249654
5639  -4007.5287212693  -0.000438360641 0.01417200  0.00007243  0.0013292   0.000225115
               *** Restarting incremental Fock matrix formation ***
                             ****Resetting KDIIS****
5640  -4007.5284664445   0.000254824781 0.00023467  0.00000188  0.0013127   0.000242263
5641  -4007.5284753108  -0.000008866271 0.00088323  0.00000540  0.0013224   0.000230458
5642  -4007.5284991979  -0.000023887085 0.00356731  0.00001917  0.0013305   0.000214080
5643  -4007.5285785181  -0.000079320196 0.00433907  0.00002364  0.0013404   0.000188115
5644  -4007.5286712878  -0.000092769708 0.00356369  0.00001740  0.0013772   0.000172215
5645  -4007.5287356955  -0.000064407746 0.00644198  0.00002554  0.0013417   0.000181284
5646  -4007.5288179601  -0.000082264629 0.01173304  0.00005017  0.0014628   0.000183969
5647  -4007.5290216599  -0.000203699803 0.08016772  0.00035902  0.0015508   0.000195909
5648  -4007.5275968617   0.001424798271 0.04128958  0.00019098  0.0020073   0.000256728
5649  -4007.5283562429  -0.000759381177 0.00958038  0.00004416  0.0013856   0.000178530
5650  -4007.5281915564   0.000164686419 0.00570692  0.00003206  0.0015038   0.000175159
5651  -4007.5283093431  -0.000117786666 0.00504665  0.00002295  0.0014189   0.000176261
5652  -4007.5282386793   0.000070663757 0.03345124  0.00014654  0.0015234   0.000181141
5653  -4007.5288079944  -0.000569315022 0.02800841  0.00011993  0.0014727   0.000184801
5654  -4007.5283411256   0.000466868770 0.01158894  0.00005212  0.0014516   0.000167935
5655  -4007.5285403601  -0.000199234535 0.02286084  0.00010294  0.0014046   0.000167703
5656  -4007.5281564599   0.000383900270 0.01810956  0.00008588  0.0015282   0.000168725
5657  -4007.5284723986  -0.000315938726 0.00310662  0.00001343  0.0013864   0.000167593
5658  -4007.5285173883  -0.000044989666 0.01468802  0.00006335  0.0013988   0.000166521
5659  -4007.5287631110  -0.000245722770 0.06001222  0.00027036  0.0014284   0.000173223
               *** Restarting incremental Fock matrix formation ***
                             ****Resetting KDIIS****
5660  -4007.5276887224   0.001074388651 0.00027458  0.00000199  0.0019046   0.000232007
5661  -4007.5276988383  -0.000010115951 0.00161845  0.00000863  0.0018934   0.000224783
5662  -4007.5277398603  -0.000041022025 0.00835196  0.00003952  0.0018405   0.000212449
5663  -4007.5279123018  -0.000172441451 0.01684325  0.00007524  0.0016681   0.000182658
5664  -4007.5282089827  -0.000296680849 0.01336409  0.00005289  0.0014990   0.000177889
5665  -4007.5280072135   0.000201769110 0.00234859  0.00000981  0.0015132   0.000176347
5666  -4007.5279695527   0.000037660846 0.00074743  0.00000319  0.0015178   0.000185226
slurmstepd: error: *** JOB 5287124 ON c0705a-s23 CANCELLED AT 2023-08-04T05:56:25 DUE TO TIME LIMIT ***
