/home/zfg2013/blue_zfg2013/INPS
c0703a-s19.ufhpc
Fri Aug  4 00:39:52 EDT 2023

                                 *****************
                                 * O   R   C   A *
                                 *****************

           --- An Ab Initio, DFT and Semiempirical electronic structure package ---

                  #######################################################
                  #                        -***-                        #
                  #          Department of theory and spectroscopy      #
                  #               Directorship: Frank Neese             #
                  #        Max Planck Institute fuer Kohlenforschung    #
                  #                Kaiser Wilhelm Platz 1               #
                  #                 D-45470 Muelheim/Ruhr               #
                  #                      Germany                        #
                  #                                                     #
                  #                  All rights reserved                #
                  #                        -***-                        #
                  #######################################################


                         Program Version 4.2.1 -  RELEASE  -


 With contributions from (in alphabetic order):
   Daniel Aravena         : Magnetic Suceptibility
   Michael Atanasov       : Ab Initio Ligand Field Theory (pilot matlab implementation)
   Alexander A. Auer      : GIAO ZORA, VPT2
   Ute Becker             : Parallelization
   Giovanni Bistoni       : ED, misc. LED, open-shell LED, HFLD
   Martin Brehm           : Molecular dynamics
   Dmytro Bykov           : SCF Hessian
   Vijay G. Chilkuri      : MRCI spin determinant printing, contributions to CSF-ICE
   Dipayan Datta          : RHF DLPNO-CCSD density
   Achintya Kumar Dutta   : EOM-CC, STEOM-CC
   Dmitry Ganyushin       : Spin-Orbit,Spin-Spin,Magnetic field MRCI
   Miquel Garcia          : C-PCM Hessian, Gaussian charge scheme
   Yang Guo               : DLPNO-NEVPT2, CIM, IAO-localization
   Andreas Hansen         : Spin unrestricted coupled pair/coupled cluster methods
   Benjamin Helmich-Paris : CASSCF linear response (MC-RPA)
   Lee Huntington         : MR-EOM, pCC
   Robert Izsak           : Overlap fitted RIJCOSX, COSX-SCS-MP3, EOM
   Christian Kollmar      : KDIIS, OOCD, Brueckner-CCSD(T), CCSD density
   Simone Kossmann        : Meta GGA functionals, TD-DFT gradient, OOMP2, MP2 Hessian
   Martin Krupicka        : AUTO-CI
   Lucas Lang             : DCDCAS
   Dagmar Lenk            : GEPOL surface, SMD
   Dimitrios Liakos       : Extrapolation schemes; Compound Job, initial MDCI parallelization
   Dimitrios Manganas     : Further ROCIS development; embedding schemes
   Dimitrios Pantazis     : SARC Basis sets
   Taras Petrenko         : DFT Hessian,TD-DFT gradient, ASA, ECA, R-Raman, ABS, FL, XAS/XES, NRVS
   Peter Pinski           : DLPNO-MP2, DLPNO-MP2 Gradient
   Christoph Reimann      : Effective Core Potentials
   Marius Retegan         : Local ZFS, SOC
   Christoph Riplinger    : Optimizer, TS searches, QM/MM, DLPNO-CCSD(T), (RO)-DLPNO pert. Triples
   Tobias Risthaus        : Range-separated hybrids, TD-DFT gradient, RPA, STAB
   Michael Roemelt        : Original ROCIS implementation
   Masaaki Saitow         : Open-shell DLPNO-CCSD energy and density
   Barbara Sandhoefer     : DKH picture change effects
   Avijit Sen             : IP-ROCIS
   Kantharuban Sivalingam : CASSCF convergence, NEVPT2, FIC-MRCI
   Bernardo de Souza      : ESD, SOC TD-DFT
   Georgi Stoychev        : AutoAux, RI-MP2 NMR
   Willem Van den Heuvel  : Paramagnetic NMR
   Boris Wezisla          : Elementary symmetry handling
   Frank Wennmohs         : Technical directorship


 We gratefully acknowledge several colleagues who have allowed us to
 interface, adapt or use parts of their codes:
   Stefan Grimme, W. Hujo, H. Kruse,             : VdW corrections, initial TS optimization,
                  C. Bannwarth                     DFT functionals, gCP, sTDA/sTD-DF
   Ed Valeev, F. Pavosevic, A. Kumar             : LibInt (2-el integral package), F12 methods
   Garnet Chan, S. Sharma, J. Yang, R. Olivares  : DMRG
   Ulf Ekstrom                                   : XCFun DFT Library
   Mihaly Kallay                                 : mrcc  (arbitrary order and MRCC methods)
   Andreas Klamt, Michael Diedenhofen            : otool_cosmo (COSMO solvation model)
   Jiri Pittner, Ondrej Demel                    : Mk-CCSD
   Frank Weinhold                                : gennbo (NPA and NBO analysis)
   Christopher J. Cramer and Donald G. Truhlar   : smd solvation model
   Lars Goerigk                                  : TD-DFT with DH, B97 family of functionals
   V. Asgeirsson, H. Jonsson                     : NEB implementation
   FAccTs GmbH                                   : IRC, NEB, NEB-TS, Multilevel, MM, QM/MM, CI optimization
   S Lehtola, MJT Oliveira, MAL Marques          : LibXC Library


 Your calculation uses the libint2 library for the computation of 2-el integrals
 For citations please refer to: http://libint.valeyev.net

 Your ORCA version has been built with support for libXC version: 4.2.3
 For citations please refer to: https://tddft.org/programs/libxc/

 This ORCA versions uses:
   CBLAS   interface :  Fast vector & matrix operations
   LAPACKE interface :  Fast linear algebra routines
   SCALAPACK package :  Parallel linear algebra routines


Your calculation utilizes the geometrical counterpoise correction gCP
Please cite in your paper:
H.Kruse, S. Grimme J.Chem.Phys., 136, (2012), 154101 
   

Your calculation utilizes the atom-pairwise dispersion correction
with the Becke-Johnson damping scheme (D3BJ)
Cite in your paper:
S.Grimme, S.Ehrlich, L.Goerigk, J Comput Chem, (2011), 32, 1456–1465 
S.Grimme, J.Antony, S.Ehrlich and H.Krieg, J.Chem.Phys., 132, (2010), 154104 
   

Your calculation utilizes the SMD solvation module
Please cite in your paper:
A.V. Marenich, C.J. Cramer, D.G. Truhlar J. Phys. Chem. B, 113, (2009), 6378 

----- Orbital basis set information -----
Your calculation utilizes the basis: MINIX,
   a combination of small basis sets by S. Grimme (see manual for definitions).

================================================================================
                                        WARNINGS
                       Please study these warnings very carefully!
================================================================================


INFO   : the flag for use of LIBINT has been found!

================================================================================
                                       INPUT FILE
================================================================================
NAME = HKRNMRSIK.inp
|  1> !HF-3c CPCM KDIIS SmallPrint
|  2> %PAL NPROCS 15 END
|  3> %maxcore 10000
|  4> %CPCM
|  5> SMD TRUE
|  6> SMDSOLVENT "WATER"
|  7> END
|  8> 
|  9> %scf
| 10> SCFmode Direct
| 11> maxiter 10000
| 12> 
| 13> end
| 14> 
| 15> %geom
| 16> 
| 17> Constraints
| 18> {C 2 C}
| 19> {C 21 C}
| 20> {C 43 C}
| 21> {C 67 C}
| 22> {C 81 C}
| 23> {C 98 C}
| 24> {C 122 C}
| 25> {C 133 C}
| 26> {C 152 C}
| 27> 
| 28> end
| 29> 
| 30> maxiter 10000
| 31> 
| 32> end
| 33> 
| 34> * xyz 0 1
| 35>    N        0.00000         0.00000         0.00000
| 36>    C        1.46145         0.00000         0.00000
| 37>    C        1.94774         0.00000         1.45615
| 38>    O        1.18426         0.00000         2.41946
| 39>    C        2.04411         1.20336         -0.76878
| 40>    H        2.63381         1.85004         -0.10703
| 41>    H        1.24387         1.83827         -1.17112
| 42>    C        2.90609         0.76454         -1.90397
| 43>    N        2.40386         0.09306         -2.99477
| 44>    C        3.45453         -0.18863         -3.81870
| 45>    H        3.33445         -0.73115         -4.74678
| 46>    N        4.58505         0.27510         -3.33539
| 47>    C        4.25427         0.88487         -2.15432
| 48>    H        5.00749         1.36841         -1.54511
| 49>    H        1.43192         -0.17656         -3.13345
| 50>    H        -0.46323         0.13431         0.89571
| 51>    H        1.77077         -0.95781         -0.43895
| 52>    H        -0.34000         0.08381         -0.95801
| 53>    H        -0.34000         0.94706         -0.16699
| 54>    N        3.26069         -0.00000         1.72406
| 55>    C        3.72296         0.00022         3.10830
| 56>    C        5.25957         0.00016         3.05115
| 57>    O        5.89478         -0.00005         1.99805
| 58>    C        3.17221         -1.22220         3.85582
| 59>    C        3.49760         -1.23091         5.35214
| 60>    C        2.76820         -2.36936         6.07164
| 61>    C        3.16412         -2.43597         7.54599
| 62>    N        2.43343         -3.50207         8.21876
| 63>    H        3.37443         0.85767         3.64516
| 64>    H        3.56358         -2.10444         3.39388
| 65>    H        2.11168         -1.22213         3.71379
| 66>    H        3.21324         -0.29072         5.77650
| 67>    H        4.55447         -1.35132         5.46806
| 68>    H        3.00258         -3.29454         5.58790
| 69>    H        1.71448         -2.20937         5.97690
| 70>    H        2.94242         -1.49942         8.01356
| 71>    H        4.21673         -2.61502         7.61570
| 72>    H        2.75555         -3.57872         9.18352
| 73>    H        2.64374         -4.39381         7.77046
| 74>    H        1.43137         -3.32635         8.14527
| 75>    H        3.96942         -0.42893         1.12898
| 76>    N        5.97225         0.00033         4.18591
| 77>    C        7.43127         0.00005         4.13164
| 78>    C        7.91832         0.00034         5.59212
| 79>    O        7.14954         0.00074         6.55246
| 80>    C        7.94222         1.22235         3.35446
| 81>    H        7.80041         2.13298         3.95107
| 82>    H        7.34094         1.35406         2.44605
| 83>    C        9.41070         1.10710         2.94568
| 84>    H        9.59071         0.14284         2.45454
| 85>    H        10.05396         1.13753         3.83143
| 86>    C        9.81746         2.23318         2.00079
| 87>    H        9.67296         3.21127         2.47084
| 88>    H        9.22350         2.19451         1.08301
| 89>    N        11.23939         2.08050         1.69298
| 90>    H        11.86654         1.87658         2.46704
| 91>    C        11.79446         2.21130         0.46198
| 92>    N        13.04265         2.10523         0.09451
| 93>    H        13.81564         2.12274         -0.58420
| 94>    H        13.76754         1.88413         0.79029
| 95>    N        11.24631         2.48845         -0.64809
| 96>    H        10.25996         2.65766         -0.72364
| 97>    H        11.84094         2.53776         -1.46116
| 98>    H        5.54013         0.26989         5.06638
| 99>    H        7.74591         -0.93169         3.64674
|100>    N        9.23115         0.00017         5.86059
|101>    C        9.69467         0.00068         7.25049
|102>    C        11.23393         0.00031         7.18032
|103>    O        11.85329         -0.00029         6.11569
|104>    C        9.18550         -1.23048         7.99946
|105>    H        8.10811         -1.35727         7.83780
|106>    H        9.68470         -2.13690         7.63548
|107>    C        9.40250         -1.12457         9.49029
|108>    O        9.87977         -0.14850         10.05854
|109>    N        9.05079         -2.23993         10.19135
|110>    H        8.58837         -3.03370         9.76903
|111>    H        9.15060         -2.22083         11.19855
|112>    H        9.35514         0.93251         7.71820
|113>    H        9.92376         -0.20357         5.14362
|114>    N        11.95608         0.00064         8.30908
|115>    C        13.41324         0.00008         8.24265
|116>    C        13.91542         0.00066         9.69560
|117>    O        13.16380         0.00145         10.66834
|118>    C        13.91811         1.22797         7.47248
|119>    C        15.38327         1.09730         7.06123
|120>    S        15.89007         2.55177         6.08813
|121>    C        17.57184         2.03165         5.67359
|122>    H        13.73245         -0.92603         7.74994
|123>    H        13.77820         2.12922         8.08497
|124>    H        13.30429         1.36128         6.57165
|125>    H        15.52441         0.19770         6.45314
|126>    H        16.03252         1.03565         7.93813
|127>    H        18.15684         1.87274         6.58315
|128>    H        18.05504         2.81308         5.08116
|129>    H        17.55049         1.11169         5.08360
|130>    H        11.52347         0.44518         9.11402
|131>    N        15.23109         0.00032         9.94976
|132>    C        15.70804         0.00109         11.32969
|133>    C        17.24581         0.00043         11.25572
|134>    O        17.86321         -0.00056         10.19172
|135>    C        15.16791         -1.22076         12.08761
|136>    H        15.67268         -2.13166         11.74007
|137>    H        14.10353         -1.35235         11.85552
|138>    C        15.31778         -1.10488         13.60450
|139>    H        14.92516         -0.14039         13.94949
|140>    H        16.37618         -1.13543         13.88399
|141>    C        14.58364         -2.23050         14.32587
|142>    H        14.96943         -3.20880         14.02161
|143>    H        13.51320         -2.19169         14.10392
|144>    N        14.81082         -2.07723         15.76283
|145>    H        15.75932         -1.87340         16.06757
|146>    C        13.86378         -2.20741         16.72549
|147>    N        13.97251         -2.10081         18.02206
|148>    H        13.61921         -2.11782         18.98816
|149>    H        14.88336         -1.87972         18.44623
|150>    N        12.63055         -2.48434         16.61592
|151>    H        12.20344         -2.65385         15.72370
|152>    H        12.08749         -2.53316         17.46433
|153>    H        15.89569         -0.26970         9.22864
|154>    H        15.36991         0.93311         11.79796
|155>    N        17.97080         0.00093         12.38266
|156>    C        19.43035         0.00008         12.31246
|157>    C        19.95379         0.00095         13.75955
|158>    O        19.21367         0.00213         14.74241
|159>    H        19.75135         -0.93712         11.84063
|160>    C        19.98403         1.20529         11.54060
|161>    H        19.49552         1.30425         10.56694
|162>    H        19.82677         2.13723         12.09654
|163>    O        21.39002         1.06171         11.30582
|164>    H        21.62064         1.71895         10.62306
|165>    H        17.55821         0.04399         13.31139
|166>    N        21.27297         0.00041         13.99487
|167>    C        21.76968         0.00146         15.36805
|168>    C        23.30802         0.00049         15.28111
|169>    O        23.92097         -0.00090         14.21485
|170>    C        21.18646         -1.17638         16.19178
|171>    C        21.57436         -1.07835         17.68172
|172>    C        20.74967         -1.98793         18.58373
|173>    H        21.45640         0.95033         15.82244
|174>    C        21.56907         -2.54166         15.60289
|175>    H        21.43588         -0.04683         18.02737
|176>    H        22.63365         -1.32483         17.81743
|177>    H        20.91805         -3.04435         18.35712
|178>    H        19.68067         -1.77636         18.48212
|179>    H        21.02745         -1.82709         19.63056
|180>    H        21.88291         -0.39073         13.28240
|181>    H        20.09184         -1.10055         16.13184
|182>    H        21.03929         -3.35292         16.11160
|183>    H        22.64281         -2.73326         15.69545
|184>    H        21.30178         -2.60741         14.54326
|185>    N        24.04243         0.00115         16.40193
|186>    C        25.49950         0.00001         16.31959
|187>    C        26.01459         0.00118         17.76842
|188>    O        25.27102         0.00275         18.74801
|189>    C        25.99108         1.22138         15.53028
|190>    C        27.50167         1.22898         15.27930
|191>    C        27.90112         2.36629         14.33445
|192>    C        29.41741         2.43186         14.15707
|193>    N        29.77292         3.49686         13.22837
|194>    H        25.86894         -0.85815         15.79808
|195>    H        25.70711         2.10430         16.06386
|196>    H        25.46696         1.22071         14.59744
|197>    H        27.79027         0.28822         14.85909
|198>    H        28.00025         1.35001         16.21828
|199>    H        27.53887         3.29207         14.73020
|200>    H        27.42337         2.20567         13.39060
|201>    H        29.76932         1.49474         13.77909
|202>    H        29.87151         2.61157         15.10912
|203>    H        30.78846         3.57287         13.17085
|204>    H        29.43468         4.38914         13.58868
|205>    H        29.33401         3.32052         12.32468
|206>    H        23.75185         0.43109         17.28006
|207>    O        27.35502         0.00039         17.93706
|208> *
|209> 
|210>                          ****END OF INPUT****
================================================================================

                       ****************************
                       * Single Point Calculation *
                       ****************************

---------------------------------
CARTESIAN COORDINATES (ANGSTROEM)
---------------------------------
  N      0.000000    0.000000    0.000000
  C      1.461450    0.000000    0.000000
  C      1.947740    0.000000    1.456150
  O      1.184260    0.000000    2.419460
  C      2.044110    1.203360   -0.768780
  H      2.633810    1.850040   -0.107030
  H      1.243870    1.838270   -1.171120
  C      2.906090    0.764540   -1.903970
  N      2.403860    0.093060   -2.994770
  C      3.454530   -0.188630   -3.818700
  H      3.334450   -0.731150   -4.746780
  N      4.585050    0.275100   -3.335390
  C      4.254270    0.884870   -2.154320
  H      5.007490    1.368410   -1.545110
  H      1.431920   -0.176560   -3.133450
  H     -0.463230    0.134310    0.895710
  H      1.770770   -0.957810   -0.438950
  H     -0.340000    0.083810   -0.958010
  H     -0.340000    0.947060   -0.166990
  N      3.260690   -0.000000    1.724060
  C      3.722960    0.000220    3.108300
  C      5.259570    0.000160    3.051150
  O      5.894780   -0.000050    1.998050
  C      3.172210   -1.222200    3.855820
  C      3.497600   -1.230910    5.352140
  C      2.768200   -2.369360    6.071640
  C      3.164120   -2.435970    7.545990
  N      2.433430   -3.502070    8.218760
  H      3.374430    0.857670    3.645160
  H      3.563580   -2.104440    3.393880
  H      2.111680   -1.222130    3.713790
  H      3.213240   -0.290720    5.776500
  H      4.554470   -1.351320    5.468060
  H      3.002580   -3.294540    5.587900
  H      1.714480   -2.209370    5.976900
  H      2.942420   -1.499420    8.013560
  H      4.216730   -2.615020    7.615700
  H      2.755550   -3.578720    9.183520
  H      2.643740   -4.393810    7.770460
  H      1.431370   -3.326350    8.145270
  H      3.969420   -0.428930    1.128980
  N      5.972250    0.000330    4.185910
  C      7.431270    0.000050    4.131640
  C      7.918320    0.000340    5.592120
  O      7.149540    0.000740    6.552460
  C      7.942220    1.222350    3.354460
  H      7.800410    2.132980    3.951070
  H      7.340940    1.354060    2.446050
  C      9.410700    1.107100    2.945680
  H      9.590710    0.142840    2.454540
  H     10.053960    1.137530    3.831430
  C      9.817460    2.233180    2.000790
  H      9.672960    3.211270    2.470840
  H      9.223500    2.194510    1.083010
  N     11.239390    2.080500    1.692980
  H     11.866540    1.876580    2.467040
  C     11.794460    2.211300    0.461980
  N     13.042650    2.105230    0.094510
  H     13.815640    2.122740   -0.584200
  H     13.767540    1.884130    0.790290
  N     11.246310    2.488450   -0.648090
  H     10.259960    2.657660   -0.723640
  H     11.840940    2.537760   -1.461160
  H      5.540130    0.269890    5.066380
  H      7.745910   -0.931690    3.646740
  N      9.231150    0.000170    5.860590
  C      9.694670    0.000680    7.250490
  C     11.233930    0.000310    7.180320
  O     11.853290   -0.000290    6.115690
  C      9.185500   -1.230480    7.999460
  H      8.108110   -1.357270    7.837800
  H      9.684700   -2.136900    7.635480
  C      9.402500   -1.124570    9.490290
  O      9.879770   -0.148500   10.058540
  N      9.050790   -2.239930   10.191350
  H      8.588370   -3.033700    9.769030
  H      9.150600   -2.220830   11.198550
  H      9.355140    0.932510    7.718200
  H      9.923760   -0.203570    5.143620
  N     11.956080    0.000640    8.309080
  C     13.413240    0.000080    8.242650
  C     13.915420    0.000660    9.695600
  O     13.163800    0.001450   10.668340
  C     13.918110    1.227970    7.472480
  C     15.383270    1.097300    7.061230
  S     15.890070    2.551770    6.088130
  C     17.571840    2.031650    5.673590
  H     13.732450   -0.926030    7.749940
  H     13.778200    2.129220    8.084970
  H     13.304290    1.361280    6.571650
  H     15.524410    0.197700    6.453140
  H     16.032520    1.035650    7.938130
  H     18.156840    1.872740    6.583150
  H     18.055040    2.813080    5.081160
  H     17.550490    1.111690    5.083600
  H     11.523470    0.445180    9.114020
  N     15.231090    0.000320    9.949760
  C     15.708040    0.001090   11.329690
  C     17.245810    0.000430   11.255720
  O     17.863210   -0.000560   10.191720
  C     15.167910   -1.220760   12.087610
  H     15.672680   -2.131660   11.740070
  H     14.103530   -1.352350   11.855520
  C     15.317780   -1.104880   13.604500
  H     14.925160   -0.140390   13.949490
  H     16.376180   -1.135430   13.883990
  C     14.583640   -2.230500   14.325870
  H     14.969430   -3.208800   14.021610
  H     13.513200   -2.191690   14.103920
  N     14.810820   -2.077230   15.762830
  H     15.759320   -1.873400   16.067570
  C     13.863780   -2.207410   16.725490
  N     13.972510   -2.100810   18.022060
  H     13.619210   -2.117820   18.988160
  H     14.883360   -1.879720   18.446230
  N     12.630550   -2.484340   16.615920
  H     12.203440   -2.653850   15.723700
  H     12.087490   -2.533160   17.464330
  H     15.895690   -0.269700    9.228640
  H     15.369910    0.933110   11.797960
  N     17.970800    0.000930   12.382660
  C     19.430350    0.000080   12.312460
  C     19.953790    0.000950   13.759550
  O     19.213670    0.002130   14.742410
  H     19.751350   -0.937120   11.840630
  C     19.984030    1.205290   11.540600
  H     19.495520    1.304250   10.566940
  H     19.826770    2.137230   12.096540
  O     21.390020    1.061710   11.305820
  H     21.620640    1.718950   10.623060
  H     17.558210    0.043990   13.311390
  N     21.272970    0.000410   13.994870
  C     21.769680    0.001460   15.368050
  C     23.308020    0.000490   15.281110
  O     23.920970   -0.000900   14.214850
  C     21.186460   -1.176380   16.191780
  C     21.574360   -1.078350   17.681720
  C     20.749670   -1.987930   18.583730
  H     21.456400    0.950330   15.822440
  C     21.569070   -2.541660   15.602890
  H     21.435880   -0.046830   18.027370
  H     22.633650   -1.324830   17.817430
  H     20.918050   -3.044350   18.357120
  H     19.680670   -1.776360   18.482120
  H     21.027450   -1.827090   19.630560
  H     21.882910   -0.390730   13.282400
  H     20.091840   -1.100550   16.131840
  H     21.039290   -3.352920   16.111600
  H     22.642810   -2.733260   15.695450
  H     21.301780   -2.607410   14.543260
  N     24.042430    0.001150   16.401930
  C     25.499500    0.000010   16.319590
  C     26.014590    0.001180   17.768420
  O     25.271020    0.002750   18.748010
  C     25.991080    1.221380   15.530280
  C     27.501670    1.228980   15.279300
  C     27.901120    2.366290   14.334450
  C     29.417410    2.431860   14.157070
  N     29.772920    3.496860   13.228370
  H     25.868940   -0.858150   15.798080
  H     25.707110    2.104300   16.063860
  H     25.466960    1.220710   14.597440
  H     27.790270    0.288220   14.859090
  H     28.000250    1.350010   16.218280
  H     27.538870    3.292070   14.730200
  H     27.423370    2.205670   13.390600
  H     29.769320    1.494740   13.779090
  H     29.871510    2.611570   15.109120
  H     30.788460    3.572870   13.170850
  H     29.434680    4.389140   13.588680
  H     29.334010    3.320520   12.324680
  H     23.751850    0.431090   17.280060
  O     27.355020    0.000390   17.937060

----------------------------
CARTESIAN COORDINATES (A.U.)
----------------------------
  NO LB      ZA    FRAG     MASS         X           Y           Z
   0 N     7.0000    0    14.007    0.000000    0.000000    0.000000
   1 C     6.0000    0    12.011    2.761740    0.000000    0.000000
   2 C     6.0000    0    12.011    3.680695    0.000000    2.751725
   3 O     8.0000    0    15.999    2.237927    0.000000    4.572117
   4 C     6.0000    0    12.011    3.862808    2.274021   -1.452784
   5 H     1.0000    0     1.008    4.977180    3.496069   -0.202257
   6 H     1.0000    0     1.008    2.350574    3.473827   -2.213096
   7 C     6.0000    0    12.011    5.491714    1.444771   -3.597982
   8 N     7.0000    0    14.007    4.542637    0.175858   -5.659295
   9 C     6.0000    0    12.011    6.528116   -0.356459   -7.216297
  10 H     1.0000    0     1.008    6.301197   -1.381673   -8.970114
  11 N     7.0000    0    14.007    8.664489    0.519864   -6.302974
  12 C     6.0000    0    12.011    8.039405    1.672162   -4.071075
  13 H     1.0000    0     1.008    9.462785    2.585920   -2.919835
  14 H     1.0000    0     1.008    2.705937   -0.333650   -5.921362
  15 H     1.0000    0     1.008   -0.875378    0.253809    1.692647
  16 H     1.0000    0     1.008    3.346270   -1.809999   -0.829495
  17 H     1.0000    0     1.008   -0.642507    0.158378   -1.810377
  18 H     1.0000    0     1.008   -0.642507    1.789684   -0.315565
  19 N     7.0000    0    14.007    6.161811   -0.000000    3.258001
  20 C     6.0000    0    12.011    7.035375    0.000416    5.873836
  21 C     6.0000    0    12.011    9.939147    0.000302    5.765838
  22 O     8.0000    0    15.999   11.139520   -0.000094    3.775767
  23 C     6.0000    0    12.011    5.994608   -2.309623    7.286444
  24 C     6.0000    0    12.011    6.609506   -2.326083   10.114079
  25 C     6.0000    0    12.011    5.231140   -4.477442   11.473737
  26 C     6.0000    0    12.011    5.979320   -4.603316   14.259855
  27 N     7.0000    0    14.007    4.598516   -6.617953   15.531206
  28 H     1.0000    0     1.008    6.376749    1.620761    6.888354
  29 H     1.0000    0     1.008    6.734190   -3.976815    6.413504
  30 H     1.0000    0     1.008    3.990497   -2.309491    7.018046
  31 H     1.0000    0     1.008    6.072144   -0.549381   10.916003
  32 H     1.0000    0     1.008    8.606701   -2.553625   10.333136
  33 H     1.0000    0     1.008    5.674054   -6.225778   10.559601
  34 H     1.0000    0     1.008    3.239898   -4.175104   11.294704
  35 H     1.0000    0     1.008    5.560368   -2.833493   15.143434
  36 H     1.0000    0     1.008    7.968465   -4.941672   14.391587
  37 H     1.0000    0     1.008    5.207235   -6.762801   17.354338
  38 H     1.0000    0     1.008    4.995945   -8.303098   14.684041
  39 H     1.0000    0     1.008    2.704897   -6.285891   15.392330
  40 H     1.0000    0     1.008    7.501117   -0.810560    2.133463
  41 N     7.0000    0    14.007   11.285917    0.000624    7.910224
  42 C     6.0000    0    12.011   14.043065    0.000094    7.807668
  43 C     6.0000    0    12.011   14.963456    0.000643   10.567575
  44 O     8.0000    0    15.999   13.510673    0.001398   12.382355
  45 C     6.0000    0    12.011   15.008621    2.309907    6.339011
  46 H     1.0000    0     1.008   14.740639    4.030748    7.466440
  47 H     1.0000    0     1.008   13.872366    2.558803    4.622365
  48 C     6.0000    0    12.011   17.783646    2.092116    5.566528
  49 H     1.0000    0     1.008   18.123815    0.269928    4.638408
  50 H     1.0000    0     1.008   18.999231    2.149620    7.240353
  51 C     6.0000    0    12.011   18.552311    4.220099    3.780945
  52 H     1.0000    0     1.008   18.279245    6.068421    4.669211
  53 H     1.0000    0     1.008   17.429889    4.147023    2.046592
  54 N     7.0000    0    14.007   21.239369    3.931575    3.199269
  55 H     1.0000    0     1.008   22.424511    3.546222    4.662030
  56 C     6.0000    0    12.011   22.288299    4.178751    0.873016
  57 N     7.0000    0    14.007   24.647037    3.978308    0.178598
  58 H     1.0000    0     1.008   26.107776    4.011397   -1.103978
  59 H     1.0000    0     1.008   26.016880    3.560490    1.493432
  60 N     7.0000    0    14.007   21.252446    4.702489   -1.224713
  61 H     1.0000    0     1.008   19.388515    5.022250   -1.367481
  62 H     1.0000    0     1.008   22.376134    4.795671   -2.761192
  63 H     1.0000    0     1.008   10.469328    0.510018    9.574071
  64 H     1.0000    0     1.008   14.637649   -1.760639    6.891340
  65 N     7.0000    0    14.007   17.444345    0.000321   11.074910
  66 C     6.0000    0    12.011   18.320271    0.001285   13.701440
  67 C     6.0000    0    12.011   21.229051    0.000586   13.568838
  68 O     8.0000    0    15.999   22.399472   -0.000548   11.556979
  69 C     6.0000    0    12.011   17.358079   -2.325270   15.116789
  70 H     1.0000    0     1.008   15.322107   -2.564869   14.811295
  71 H     1.0000    0     1.008   18.301431   -4.038156   14.428966
  72 C     6.0000    0    12.011   17.768150   -2.125129   17.934049
  73 O     8.0000    0    15.999   18.670060   -0.280624   19.007886
  74 N     7.0000    0    14.007   17.103514   -4.232854   19.258860
  75 H     1.0000    0     1.008   16.229667   -5.732862   18.460791
  76 H     1.0000    0     1.008   17.292128   -4.196760   21.162193
  77 H     1.0000    0     1.008   17.678653    1.762189   14.585284
  78 H     1.0000    0     1.008   18.753189   -0.384692    9.720033
  79 N     7.0000    0    14.007   22.593717    0.001209   15.701886
  80 C     6.0000    0    12.011   25.347350    0.000151   15.576351
  81 C     6.0000    0    12.011   26.296333    0.001247   18.322029
  82 O     8.0000    0    15.999   24.875977    0.002740   20.160241
  83 C     6.0000    0    12.011   26.301416    2.320527   14.120941
  84 C     6.0000    0    12.011   29.070167    2.073596   13.343791
  85 S    16.0000    0    32.060   30.027881    4.822146   11.504898
  86 C     6.0000    0    12.011   33.205965    3.839262   10.721531
  87 H     1.0000    0     1.008   25.950570   -1.749943   14.645264
  88 H     1.0000    0     1.008   26.037025    4.023643   15.278379
  89 H     1.0000    0     1.008   25.141465    2.572446   12.418619
  90 H     1.0000    0     1.008   29.336883    0.373599   12.194667
  91 H     1.0000    0     1.008   30.297072    1.957095   15.000892
  92 H     1.0000    0     1.008   34.311455    3.538966   12.440351
  93 H     1.0000    0     1.008   34.119081    5.315951    9.602001
  94 H     1.0000    0     1.008   33.165620    2.100790    9.606612
  95 H     1.0000    0     1.008   21.776202    0.841268   17.223002
  96 N     7.0000    0    14.007   28.782589    0.000605   18.802321
  97 C     6.0000    0    12.011   29.683894    0.002060   21.410011
  98 C     6.0000    0    12.011   32.589858    0.000813   21.270228
  99 O     8.0000    0    15.999   33.756575   -0.001058   19.259560
 100 C     6.0000    0    12.011   28.663196   -2.306902   22.842273
 101 H     1.0000    0     1.008   29.617073   -4.028254   22.185517
 102 H     1.0000    0     1.008   26.651809   -2.555571   22.403686
 103 C     6.0000    0    12.011   28.946409   -2.087921   25.708779
 104 H     1.0000    0     1.008   28.204465   -0.265299   26.360716
 105 H     1.0000    0     1.008   30.946495   -2.145652   26.236939
 106 C     6.0000    0    12.011   27.559086   -4.215034   27.071971
 107 H     1.0000    0     1.008   28.288123   -6.063753   26.497003
 108 H     1.0000    0     1.008   25.536247   -4.141694   26.652546
 109 N     7.0000    0    14.007   27.988394   -3.925396   29.787432
 110 H     1.0000    0     1.008   29.780799   -3.540213   30.363307
 111 C     6.0000    0    12.011   26.198747   -4.171400   31.606596
 112 N     7.0000    0    14.007   26.404217   -3.969956   34.056758
 113 H     1.0000    0     1.008   25.736577   -4.002100   35.882422
 114 H     1.0000    0     1.008   28.125474   -3.552156   34.858323
 115 N     7.0000    0    14.007   23.868280   -4.694722   31.399538
 116 H     1.0000    0     1.008   23.061159   -5.015050   29.713487
 117 H     1.0000    0     1.008   22.842046   -4.786979   33.002801
 118 H     1.0000    0     1.008   30.038501   -0.509659   17.439602
 119 H     1.0000    0     1.008   29.044921    1.763322   22.294913
 120 N     7.0000    0    14.007   33.959890    0.001757   23.399836
 121 C     6.0000    0    12.011   36.718040    0.000151   23.267177
 122 C     6.0000    0    12.011   37.707198    0.001795   26.001781
 123 O     8.0000    0    15.999   36.308574    0.004025   27.859117
 124 H     1.0000    0     1.008   37.324642   -1.770900   22.375548
 125 C     6.0000    0    12.011   37.764344    2.277668   21.808573
 126 H     1.0000    0     1.008   36.841194    2.464675   19.968623
 127 H     1.0000    0     1.008   37.467165    4.038779   22.859148
 128 O     8.0000    0    15.999   40.421280    2.006341   21.364904
 129 H     1.0000    0     1.008   40.857088    3.248345   20.074674
 130 H     1.0000    0     1.008   33.180208    0.083129   25.154882
 131 N     7.0000    0    14.007   40.200087    0.000775   26.446472
 132 C     6.0000    0    12.011   41.138733    0.002759   29.041406
 133 C     6.0000    0    12.011   44.045775    0.000926   28.877113
 134 O     8.0000    0    15.999   45.204082   -0.001701   26.862174
 135 C     6.0000    0    12.011   40.036607   -2.223036   30.598030
 136 C     6.0000    0    12.011   40.769632   -2.037786   33.413608
 137 C     6.0000    0    12.011   39.211194   -3.756643   35.118160
 138 H     1.0000    0     1.008   40.546720    1.795863   29.900078
 139 C     6.0000    0    12.011   40.759635   -4.803041   29.485189
 140 H     1.0000    0     1.008   40.507943   -0.088496   34.066792
 141 H     1.0000    0     1.008   42.771400   -2.503566   33.670063
 142 H     1.0000    0     1.008   39.529386   -5.752988   34.689929
 143 H     1.0000    0     1.008   37.191076   -3.356834   34.926145
 144 H     1.0000    0     1.008   39.736122   -3.452700   37.096382
 145 H     1.0000    0     1.008   41.352707   -0.738373   25.100098
 146 H     1.0000    0     1.008   37.968075   -2.079738   30.484760
 147 H     1.0000    0     1.008   39.758496   -6.336101   30.446512
 148 H     1.0000    0     1.008   42.788710   -5.165113   29.660102
 149 H     1.0000    0     1.008   40.254530   -4.927291   27.482778
 150 N     7.0000    0    14.007   45.433608    0.002173   30.995156
 151 C     6.0000    0    12.011   48.187072    0.000019   30.839556
 152 C     6.0000    0    12.011   49.160451    0.002230   33.577448
 153 O     8.0000    0    15.999   47.755307    0.005197   35.428604
 154 C     6.0000    0    12.011   49.116023    2.308074   29.347976
 155 C     6.0000    0    12.011   51.970625    2.322436   28.873693
 156 C     6.0000    0    12.011   52.725476    4.471640   27.088185
 157 C     6.0000    0    12.011   55.590848    4.595549   26.752985
 158 N     7.0000    0    14.007   56.262665    6.608108   24.997996
 159 H     1.0000    0     1.008   48.885212   -1.621668   29.854045
 160 H     1.0000    0     1.008   48.579398    3.976551   30.356296
 161 H     1.0000    0     1.008   48.125580    2.306808   27.585164
 162 H     1.0000    0     1.008   52.515999    0.544657   28.079611
 163 H     1.0000    0     1.008   52.912804    2.551149   30.648108
 164 H     1.0000    0     1.008   52.040922    6.221111   27.836044
 165 H     1.0000    0     1.008   51.822659    4.168112   25.304567
 166 H     1.0000    0     1.008   56.255862    2.824649   26.038706
 167 H     1.0000    0     1.008   56.448973    4.935152   28.552099
 168 H     1.0000    0     1.008   58.181757    6.751746   24.889299
 169 H     1.0000    0     1.008   55.623484    8.294273   25.678884
 170 H     1.0000    0     1.008   55.433245    6.274873   23.290270
 171 H     1.0000    0     1.008   44.884492    0.814642   32.654581
 172 O     8.0000    0    15.999   51.693496    0.000737   33.896131

--------------------------------
INTERNAL COORDINATES (ANGSTROEM)
--------------------------------
 N      0   0   0     0.000000000000     0.00000000     0.00000000
 C      1   0   0     1.461450000000     0.00000000     0.00000000
 C      2   1   0     1.535203825751   108.46705034     0.00000000
 O      3   2   1     1.229173651890   123.13404915     0.00000000
 C      2   1   3     1.542268022621   112.19712055   237.42706994
 H      5   2   1     1.097202886845   111.24028393   117.65762040
 H      5   2   1     1.097894458179   111.00952425     0.15449122
 C      5   2   1     1.491384876181   111.60442919   239.34855475
 N      8   5   2     1.375850647163   122.41774934    65.86697841
 C      9   8   5     1.364594207045   107.36071879   181.64955907
 H     10   9   8     1.081702197095   122.41863490   178.92627196
 N     10   9   8     1.314043203019   111.56098054   359.06026605
 C     12  10   9     1.369730340688   105.45507388   359.80727685
 H     13  12  10     1.082722551765   121.06297386   180.67549538
 H      9   8   5     1.018132825519   125.85277034   359.16782239
 H      1   2   3     1.017309005711   117.08735136     8.52785658
 H      2   1   3     1.098069196818   106.36136092   114.62127838
 H      1   2   3     1.020003566758   109.47114980   175.00029763
 H      1   2   3     1.020004070433   109.47113980    99.99986914
 N      3   2   1     1.340005026334   120.00003797   180.00000000
 C     20   3   2     1.459388220762   119.99984300   179.99002660
 C     21  20   3     1.537672402757   106.33687736   180.00012519
 O     22  21  20     1.229842021643   123.22756288     0.00000000
 C     21  20   3     1.535064288328   110.37251818    58.16474413
 C     24  21  20     1.531315793231   113.83641549   185.56113205
 C     25  24  21     1.531591659843   111.22731394   172.43834735
 C     26  25  24     1.528037126840   111.23998461   176.22998273
 N     27  26  25     1.457084952568   110.33214227   178.51601344
 H     21  20   3     1.070005758396   111.89115294   300.28598399
 H     24  21  20     1.070003017799   108.36877217    63.03250473
 H     24  21  20     1.069998320887   106.91268749   307.10887181
 H     25  24  21     1.069999652009   109.03016550    51.09911614
 H     25  24  21     1.070004771672   108.44427868   293.05895874
 H     26  25  24     1.069998319812   109.02670713    54.77055458
 H     26  25  24     1.069999208458   108.43652136   297.70502867
 H     27  26  25     1.069999297850   109.25590231    58.01274856
 H     27  26  25     1.070002896585   108.96840825   299.29206507
 H     28  27  26     1.019999203186   109.47121207   175.98163024
 H     28  27  26     1.020001673381   109.47122523    59.52586174
 H     28  27  26     1.020001246127   109.47157936   300.40222005
 H     20   3   2     1.019999688333   124.34411385   329.38206212
 N     22  21  20     1.339997413766   120.00067908   179.99997172
 C     42  22  21     1.460028996870   120.00045182   179.98989368
 C     43  42  22     1.539551758467   106.31262786   180.00027641
 O     44  43  42     1.230152740110   122.87888357     0.00000000
 C     43  42  22     1.535934876517   110.55396991    58.22393325
 H     46  43  42     1.097861815121   110.00731763    72.15897831
 H     46  43  42     1.097312120866   109.39779583   315.82480697
 C     46  43  42     1.528665156697   113.25835132   194.91088656
 H     49  46  43     1.097004761749   110.09778499    50.04545425
 H     49  46  43     1.095108430704   110.23583974   292.38814750
 C     49  46  43     1.525230138733   111.48068051   171.32058844
 H     52  49  46     1.094754447627   111.00365538    59.55224241
 H     52  49  46     1.093893952310   110.41776741   298.96502528
 N     52  49  46     1.462854436846   108.21142126   178.10889143
 H     55  52  49     1.016892016145   117.40249044   315.25640834
 C     55  52  49     1.356676949351   125.34904067   136.45577672
 N     57  55  52     1.305474366619   129.69950791   179.37199969
 H     58  57  55     1.028818450602   154.51267432   181.01146444
 H     58  57  55     1.028815109969   120.05066963     0.49926738
 N     57  55  52     1.268674879510   129.65891507     0.43992808
 H     61  57  55     1.003606570873   121.82559786     0.41079893
 H     61  57  55     1.008513330551   117.47417474   180.15404924
 H     42  22  21     1.017161594291   120.47234071   342.10363899
 H     43  42  22     1.096478803808   107.65938260   296.92467749
 N     44  43  42     1.339999544291   120.00030596   179.99998288
 C     66  44  43     1.465152913692   120.00057993   179.98943287
 C     67  66  44     1.540858628622   105.83297768   179.99995160
 O     68  67  66     1.231683484707   122.79929562     0.00000000
 C     67  66  44     1.528386435232   111.05083618    59.70530993
 H     70  67  66     1.096803934986   110.37336731   311.14773986
 H     70  67  66     1.096940881178   110.57372732    70.10626876
 C     70  67  66     1.510258261689   112.29522706   191.66978876
 O     73  70  67     1.226135131337   124.69723279     2.84509995
 N     73  70  67     1.363529602649   114.40042708   184.43329303
 H     75  73  70     1.011067382374   123.05229359   353.50375000
 H     75  73  70     1.012313531521   118.07897814   181.56693970
 H     67  66  44     1.096512842560   107.87676080   296.79124893
 H     66  44  43     1.017479523430   121.71922673   346.40604516
 N     68  67  66     1.339999951119   119.99987677   180.00039586
 C     80  68  67     1.458673549531   119.99976780   179.99048736
 C     81  80  68     1.537286177424   106.45633282   179.99995472
 O     82  81  80     1.229290997323   123.24076599     0.00000000
 C     81  80  68     1.534851588233   110.55712031    58.73976565
 C     84  81  80     1.527381758762   112.47018763   194.84529524
 S     85  84  81     1.821881673134   110.02043133   177.39305870
 C     86  85  84     1.808512803079    98.71446506   183.97758307
 H     81  80  68     1.096511696381   108.15567881   297.31570985
 H     84  81  80     1.098622032685   109.55067773    72.15213123
 H     84  81  80     1.098199088235   108.95737491   315.82466731
 H     85  84  81     1.094976761260   110.08787504    57.40879248
 H     85  84  81     1.092831137459   111.01870347   296.83805810
 H     87  86  85     1.093058453012   110.41168751   300.09168077
 H     87  86  85     1.093200983260   109.24874171   180.77163612
 H     87  86  85     1.093101287256   110.34034644    61.53833981
 H     80  68  67     1.016216328987   115.97090400   330.91565619
 N     82  81  80     1.339994391817   120.00023469   180.00005378
 C     97  82  81     1.460030376499   120.00051723   179.99006937
 C     98  97  82     1.539548170536   106.31291963   179.99979672
 O     99  98  97     1.230154356209   122.87894829     0.00000000
 C     98  97  82     1.535936380779   110.55390494    58.22297175
 H    101  98  97     1.097868669058   110.00725224    72.15930627
 H    101  98  97     1.097308744429   109.39848535   315.82595518
 C    101  98  97     1.528674086717   113.25814580   194.91106411
 H    104 101  98     1.097000239107   110.09755845    50.04639056
 H    104 101  98     1.095106626133   110.23601955   292.38798323
 C    104 101  98     1.525239850286   111.48004062   171.32116148
 H    107 104 101     1.094750639050   111.00362553    59.55235222
 H    107 104 101     1.093896618607   110.41768871   298.96490523
 N    107 104 101     1.462859011286   108.21051751   178.10935192
 H    110 107 104     1.016890056250   117.40184517   315.25488048
 C    110 107 104     1.356667191908   125.34879624   136.45619080
 N    112 110 107     1.305480577335   129.69932064   179.37072422
 H    113 112 110     1.028814580039   154.51275653   181.01023633
 H    113 112 110     1.028809360134   120.05053760     0.49999546
 N    112 110 107     1.268681221860   129.65921213     0.43889961
 H    116 112 110     1.003600080012   121.82552945     0.41151102
 H    116 112 110     1.008512312319   117.47369630   180.15436027
 H     97  82  81     1.017161744660   120.47248730   342.10308849
 H     98  97  82     1.096480720396   107.65872915   296.92435879
 N     99  98  97     1.340001684215   120.00029567   179.99980535
 C    121  99  98     1.461237477277   120.00058120   179.98987721
 C    122 121  99     1.538850109205   107.13236229   179.99975877
 O    123 122 121     1.230362867775   123.13326204     0.00000000
 H    122 121  99     1.097273160567   108.26185657   295.98750913
 C    122 121  99     1.534555488114   112.58779982    58.35065894
 H    126 122 121     1.093823064897   110.95563504   308.84089592
 H    126 122 121     1.096499956589   111.14595118    69.13751207
 O    126 122 121     1.432670494182   110.96554011   189.33764844
 H    129 126 122     0.975351844003   106.21412883   165.15556891
 H    121  99  98     1.017164728350   123.25984646   357.15282773
 N    123 122 121     1.340004353127   120.00023760   179.99949845
 C    132 123 122     1.460255196532   120.00040196   179.98983141
 C    133 132 123     1.540795074012   106.65150193   180.00047648
 O    134 133 132     1.229886182620   123.12753824     0.00000000
 C    133 132 123     1.551123382230   111.77385117    54.93267759
 C    136 133 132     1.542724050017   111.72129006   186.89047083
 C    137 136 133     1.523506288993   113.43828000   165.20752700
 H    133 132 123     1.097710757622   107.02588928   295.38704696
 C    136 133 132     1.535308217460   112.20102264    61.00882958
 H    137 136 133     1.096669568877   109.41549818    44.73478996
 H    137 136 133     1.096022307528   110.38370999   287.08098021
 H    138 137 136     1.093493087724   111.76129136    64.24335364
 H    138 137 136     1.094462177053   110.99818336   302.91913527
 H    138 137 136     1.094935743731   109.93911352   183.55447324
 H    132 123 122     1.016184434096   117.89987351   334.24503345
 H    136 133 132     1.098879400526   107.04807233   304.18318356
 H    140 136 133     1.094347065651   111.11723320   187.81345706
 H    140 136 133     1.094621167893   111.57215601    67.46837439
 H    140 136 133     1.094798037768   111.33414404   306.58875588
 N    134 133 132     1.339998491081   119.99987219   180.00037919
 C    151 134 133     1.459395135013   120.00013763   179.98996989
 C    152 151 134     1.537669485260   106.33695776   179.99987713
 O    153 152 151     1.229835508473   123.22787016     0.00000000
 C    152 151 134     1.535058907469   110.37202664    58.16445974
 C    155 152 151     1.531316710710   113.83626005   185.56136058
 C    156 155 152     1.531592589790   111.22751015   172.43875075
 C    157 156 155     1.528037451570   111.24022951   176.22989410
 N    158 157 156     1.457084777938   110.33226457   178.51596292
 H    152 151 134     1.069998681915   111.89129950   300.28612811
 H    155 152 151     1.069997338174   108.36918220    63.03278924
 H    155 152 151     1.069996583593   106.91290994   307.10930561
 H    156 155 152     1.069998028830   109.03053149    51.09917506
 H    156 155 152     1.070006410121   108.44451351   293.05926314
 H    157 156 155     1.070005482883   109.02694129    54.77076646
 H    157 156 155     1.069998443644   108.43679541   297.70499131
 H    158 157 156     1.070001599485   109.25563147    58.01282883
 H    158 157 156     1.070000792803   108.96857005   299.29190894
 H    159 158 157     1.020003706905   109.47095381   175.98143367
 H    159 158 157     1.019996662789   109.47135954    59.52613415
 H    159 158 157     1.019996764603   109.47165635   300.40199872
 H    151 134 133     1.019998743578   124.34461513   329.38231107
 O    153 152 151     1.350996912876   116.74207266   179.99993511

---------------------------
INTERNAL COORDINATES (A.U.)
---------------------------
 N      0   0   0     0.000000000000     0.00000000     0.00000000
 C      1   0   0     2.761740258419     0.00000000     0.00000000
 C      2   1   0     2.901114790417   108.46705034     0.00000000
 O      3   2   1     2.322801573103   123.13404915     0.00000000
 C      2   1   3     2.914464187858   112.19712055   237.42706994
 H      5   2   1     2.073412969484   111.24028393   117.65762040
 H      5   2   1     2.074719849908   111.00952425     0.15449122
 C      5   2   1     2.818308976253   111.60442919   239.34855475
 N      8   5   2     2.599980924317   122.41774934    65.86697841
 C      9   8   5     2.578709335250   107.36071879   181.64955907
 H     10   9   8     2.044120910970   122.41863490   178.92627196
 N     10   9   8     2.483181781846   111.56098054   359.06026605
 C     12  10   9     2.588415221222   105.45507388   359.80727685
 H     13  12  10     2.046049101856   121.06297386   180.67549538
 H      9   8   5     1.923992208187   125.85277034   359.16782239
 H      1   2   3     1.922435414365   117.08735136     8.52785658
 H      2   1   3     2.075050058080   106.36136092   114.62127838
 H      1   2   3     1.927527396796   109.47114980   175.00029763
 H      1   2   3     1.927528348603   109.47113980    99.99986914
 N      3   2   1     2.532242517849   120.00003797   180.00000000
 C     20   3   2     2.757844060312   119.99984300   179.99002660
 C     21  20   3     2.905779724899   106.33687736   180.00012519
 O     22  21  20     2.324064608894   123.22756288     0.00000000
 C     21  20   3     2.900851102903   110.37251818    58.16474413
 C     24  21  20     2.893767473756   113.83641549   185.56113205
 C     25  24  21     2.894288786101   111.22731394   172.43834735
 C     26  25  24     2.887571692191   111.23998461   176.22998273
 N     27  26  25     2.753491514211   110.33214227   178.51601344
 H     21  20   3     2.022017845087   111.89115294   300.28598399
 H     24  21  20     2.022012666110   108.36877217    63.03250473
 H     24  21  20     2.022003790231   106.91268749   307.10887181
 H     25  24  21     2.022006305689   109.03016550    51.09911614
 H     25  24  21     2.022015980448   108.44427868   293.05895874
 H     26  25  24     2.022003788200   109.02670713    54.77055458
 H     26  25  24     2.022005467497   108.43652136   297.70502867
 H     27  26  25     2.022005636425   109.25590231    58.01274856
 H     27  26  25     2.022012437048   108.96840825   299.29206507
 H     28  27  26     1.927519150839   109.47121207   175.98163024
 H     28  27  26     1.927523818831   109.47122523    59.52586174
 H     28  27  26     1.927523011438   109.47157936   300.40222005
 H     20   3   2     1.927520067635   124.34411385   329.38206212
 N     22  21  20     2.532228132181   120.00067908   179.99997172
 C     42  22  21     2.759054951667   120.00045182   179.98989368
 C     43  42  22     2.909331192500   106.31262786   180.00027641
 O     44  43  42     2.324651781701   122.87888357     0.00000000
 C     43  42  22     2.902496276154   110.55396991    58.22393325
 H     46  43  42     2.074658163468   110.00731763    72.15897831
 H     46  43  42     2.073619391870   109.39779583   315.82480697
 C     46  43  42     2.888758496625   113.25835132   194.91088656
 H     49  46  43     2.073038567313   110.09778499    50.04545425
 H     49  46  43     2.069455020980   110.23583974   292.38814750
 C     49  46  43     2.882267253408   111.48068051   171.32058844
 H     52  49  46     2.068786089908   111.00365538    59.55224241
 H     52  49  46     2.067159989418   110.41776741   298.96502528
 N     52  49  46     2.764394259431   108.21142126   178.10889143
 H     55  52  49     1.921647418286   117.40249044   315.25640834
 C     55  52  49     2.563747886477   125.34904067   136.45577672
 N     57  55  52     2.466989027765   129.69950791   179.37199969
 H     58  57  55     1.944185113164   154.51267432   181.01146444
 H     58  57  55     1.944178800281   120.05066963     0.49926738
 N     57  55  52     2.397448075260   129.65891507     0.43992808
 H     61  57  55     1.896541565154   121.82559786     0.41079893
 H     61  57  55     1.905813997151   117.47417474   180.15404924
 H     42  22  21     1.922156847152   120.47234071   342.10363899
 H     43  42  22     2.072044650846   107.65938260   296.92467749
 N     44  43  42     2.532232158289   120.00030596   179.99998288
 C     66  44  43     2.768737751195   120.00057993   179.98943287
 C     67  66  44     2.911800819186   105.83297768   179.99995160
 O     68  67  66     2.327544469770   122.79929562     0.00000000
 C     67  66  44     2.888231789388   111.05083618    59.70530993
 H     70  67  66     2.072659059730   110.37336731   311.14773986
 H     70  67  66     2.072917850529   110.57372732    70.10626876
 C     70  67  66     2.853974506084   112.29522706   191.66978876
 O     73  70  67     2.317059601407   124.69723279     2.84509995
 N     73  70  67     2.576697524501   114.40042708   184.43329303
 H     75  73  70     1.910640455627   123.05229359   353.50375000
 H     75  73  70     1.912995336237   118.07897814   181.56693970
 H     67  66  44     2.072108974767   107.87676080   296.79124893
 H     66  44  43     1.922757646156   121.71922673   346.40604516
 N     68  67  66     2.532232927084   119.99987677   180.00039586
 C     80  68  67     2.756493527408   119.99976780   179.99048736
 C     81  80  68     2.905049864795   106.45633282   179.99995472
 O     82  81  80     2.323023323836   123.24076599     0.00000000
 C     81  80  68     2.900449157974   110.55712031    58.73976565
 C     84  81  80     2.886333226008   112.47018763   194.84529524
 S     85  84  81     3.442857410633   110.02043133   177.39305870
 C     86  85  84     3.417593907509    98.71446506   183.97758307
 H     81  80  68     2.072106808801   108.15567881   297.31570985
 H     84  81  80     2.076094766466   109.55067773    72.15213123
 H     84  81  80     2.075295517286   108.95737491   315.82466731
 H     85  84  81     2.069206201790   110.08787504    57.40879248
 H     85  84  81     2.065151560419   111.01870347   296.83805810
 H     87  86  85     2.065581124559   110.41168751   300.09168077
 H     87  86  85     2.065850467694   109.24874171   180.77163612
 H     87  86  85     2.065662069550   110.34034644    61.53833981
 H     80  68  67     1.920370554604   115.97090400   330.91565619
 N     82  81  80     2.532222421524   120.00023469   180.00005378
 C     97  82  81     2.759057558789   120.00051723   179.99006937
 C     98  97  82     2.909324412292   106.31291963   179.99979672
 O     99  98  97     2.324654835685   122.87894829     0.00000000
 C     98  97  82     2.902499118798   110.55390494    58.22297175
 H    101  98  97     2.074671115533   110.00725224    72.15930627
 H    101  98  97     2.073613011327   109.39848535   315.82595518
 C    101  98  97     2.888775371917   113.25814580   194.91106411
 H    104 101  98     2.073030020758   110.09755845    50.04639056
 H    104 101  98     2.069451610834   110.23601955   292.38798323
 C    104 101  98     2.882285605583   111.48004062   171.32116148
 H    107 104 101     2.068778892739   111.00362553    59.55235222
 H    107 104 101     2.067165027990   110.41768871   298.96490523
 N    107 104 101     2.764402903869   108.21051751   178.10935192
 H    110 107 104     1.921643714620   117.40184517   315.25488048
 C    110 107 104     2.563729447582   125.34879624   136.45619080
 N    112 110 107     2.467000764317   129.69932064   179.37072422
 H    113 112 110     1.944177798858   154.51275653   181.01023633
 H    113 112 110     1.944167934669   120.05053760     0.49999546
 N    112 110 107     2.397460060564   129.65921213     0.43889961
 H    116 112 110     1.896529299204   121.82552945     0.41151102
 H    116 112 110     1.905812072971   117.47369630   180.15436027
 H     97  82  81     1.922157131309   120.47248730   342.10308849
 H     98  97  82     2.072048272673   107.65872915   296.92435879
 N     99  98  97     2.532236202160   120.00029567   179.99980535
 C    121  99  98     2.761338648676   120.00058120   179.98987721
 C    122 121  99     2.908005267552   107.13236229   179.99975877
 O    123 122 121     2.325048865441   123.13326204     0.00000000
 H    122 121  99     2.073545767573   108.26185657   295.98750913
 C    122 121  99     2.899889609841   112.58779982    58.35065894
 H    126 122 121     2.067026031621   110.95563504   308.84089592
 H    126 122 121     2.072084623810   111.14595118    69.13751207
 O    126 122 121     2.707354874154   110.96554011   189.33764844
 H    129 126 122     1.843147869381   106.21412883   165.15556891
 H    121  99  98     1.922162769667   123.25984646   357.15282773
 N    123 122 121     2.532241245673   120.00023760   179.99949845
 C    132 123 122     2.759482407082   120.00040196   179.98983141
 C    133 132 123     2.911680718378   106.65150193   180.00047648
 O    134 133 132     2.324148061046   123.12753824     0.00000000
 C    133 132 123     2.931198392336   111.77385117    54.93267759
 C    136 133 132     2.915325954745   111.72129006   186.89047083
 C    137 136 133     2.879009649503   113.43828000   165.20752700
 H    133 132 123     2.074372706166   107.02588928   295.38704696
 C    136 133 132     2.901312062158   112.20102264    61.00882958
 H    137 136 133     2.072405144582   109.41549818    44.73478996
 H    137 136 133     2.071181997897   110.38370999   287.08098021
 H    138 137 136     2.066402465134   111.76129136    64.24335364
 H    138 137 136     2.068233778566   110.99818336   302.91913527
 H    138 137 136     2.069128689893   109.93911352   183.55447324
 H    132 123 122     1.920310281996   117.89987351   334.24503345
 H    136 133 132     2.076581121201   107.04807233   304.18318356
 H    140 136 133     2.068016249542   111.11723320   187.81345706
 H    140 136 133     2.068534227711   111.57215601    67.46837439
 H    140 136 133     2.068868463335   111.33414404   306.58875588
 N    134 133 132     2.532230168011   119.99987219   180.00037919
 C    151 134 133     2.757857126352   120.00013763   179.98996989
 C    152 151 134     2.905774211629   106.33695776   179.99987713
 O    153 152 151     2.324052300785   123.22787016     0.00000000
 C    152 151 134     2.900840934553   110.37202664    58.16445974
 C    155 152 151     2.893769207539   113.83626005   185.56136058
 C    156 155 152     2.894290543447   111.22751015   172.43875075
 C    157 156 155     2.887572305842   111.24022951   176.22989410
 N    158 157 156     2.753491184209   110.33226457   178.51596292
 H    152 151 134     2.022004472476   111.89129950   300.28612811
 H    155 152 151     2.022001933174   108.36918220    63.03278924
 H    155 152 151     2.022000507222   106.91290994   307.10930561
 H    156 155 152     2.022003238324   109.03053149    51.09917506
 H    156 155 152     2.022019076669   108.44451351   293.05926314
 H    157 156 155     2.022017324443   109.02694129    54.77076646
 H    157 156 155     2.022004022209   108.43679541   297.70499131
 H    158 157 156     2.022009985884   109.25563147    58.01282883
 H    158 157 156     2.022008461477   108.96857005   299.29190894
 H    159 158 157     1.927527661635   109.47095381   175.98143367
 H    159 158 157     1.927514350184   109.47135954    59.52613415
 H    159 158 157     1.927514542585   109.47165635   300.40199872
 H    151 134 133     1.927518282306   124.34461513   329.38231107
 O    153 152 151     2.553014173108   116.74207266   179.99993511

---------------------
BASIS SET INFORMATION
---------------------
There are 5 groups of distinct atoms

 Group   1 Type N   : 6s3p contracted to 2s1p pattern {33/3}
 Group   2 Type C   : 6s3p contracted to 2s1p pattern {33/3}
 Group   3 Type O   : 6s3p contracted to 2s1p pattern {33/3}
 Group   4 Type H   : 3s contracted to 1s pattern {3}
 Group   5 Type S   : 9s6p1d contracted to 3s2p1d pattern {333/33/1}

Atom   0N    basis set group =>   1
Atom   1C    basis set group =>   2
Atom   2C    basis set group =>   2
Atom   3O    basis set group =>   3
Atom   4C    basis set group =>   2
Atom   5H    basis set group =>   4
Atom   6H    basis set group =>   4
Atom   7C    basis set group =>   2
Atom   8N    basis set group =>   1
Atom   9C    basis set group =>   2
Atom  10H    basis set group =>   4
Atom  11N    basis set group =>   1
Atom  12C    basis set group =>   2
Atom  13H    basis set group =>   4
Atom  14H    basis set group =>   4
Atom  15H    basis set group =>   4
Atom  16H    basis set group =>   4
Atom  17H    basis set group =>   4
Atom  18H    basis set group =>   4
Atom  19N    basis set group =>   1
Atom  20C    basis set group =>   2
Atom  21C    basis set group =>   2
Atom  22O    basis set group =>   3
Atom  23C    basis set group =>   2
Atom  24C    basis set group =>   2
Atom  25C    basis set group =>   2
Atom  26C    basis set group =>   2
Atom  27N    basis set group =>   1
Atom  28H    basis set group =>   4
Atom  29H    basis set group =>   4
Atom  30H    basis set group =>   4
Atom  31H    basis set group =>   4
Atom  32H    basis set group =>   4
Atom  33H    basis set group =>   4
Atom  34H    basis set group =>   4
Atom  35H    basis set group =>   4
Atom  36H    basis set group =>   4
Atom  37H    basis set group =>   4
Atom  38H    basis set group =>   4
Atom  39H    basis set group =>   4
Atom  40H    basis set group =>   4
Atom  41N    basis set group =>   1
Atom  42C    basis set group =>   2
Atom  43C    basis set group =>   2
Atom  44O    basis set group =>   3
Atom  45C    basis set group =>   2
Atom  46H    basis set group =>   4
Atom  47H    basis set group =>   4
Atom  48C    basis set group =>   2
Atom  49H    basis set group =>   4
Atom  50H    basis set group =>   4
Atom  51C    basis set group =>   2
Atom  52H    basis set group =>   4
Atom  53H    basis set group =>   4
Atom  54N    basis set group =>   1
Atom  55H    basis set group =>   4
Atom  56C    basis set group =>   2
Atom  57N    basis set group =>   1
Atom  58H    basis set group =>   4
Atom  59H    basis set group =>   4
Atom  60N    basis set group =>   1
Atom  61H    basis set group =>   4
Atom  62H    basis set group =>   4
Atom  63H    basis set group =>   4
Atom  64H    basis set group =>   4
Atom  65N    basis set group =>   1
Atom  66C    basis set group =>   2
Atom  67C    basis set group =>   2
Atom  68O    basis set group =>   3
Atom  69C    basis set group =>   2
Atom  70H    basis set group =>   4
Atom  71H    basis set group =>   4
Atom  72C    basis set group =>   2
Atom  73O    basis set group =>   3
Atom  74N    basis set group =>   1
Atom  75H    basis set group =>   4
Atom  76H    basis set group =>   4
Atom  77H    basis set group =>   4
Atom  78H    basis set group =>   4
Atom  79N    basis set group =>   1
Atom  80C    basis set group =>   2
Atom  81C    basis set group =>   2
Atom  82O    basis set group =>   3
Atom  83C    basis set group =>   2
Atom  84C    basis set group =>   2
Atom  85S    basis set group =>   5
Atom  86C    basis set group =>   2
Atom  87H    basis set group =>   4
Atom  88H    basis set group =>   4
Atom  89H    basis set group =>   4
Atom  90H    basis set group =>   4
Atom  91H    basis set group =>   4
Atom  92H    basis set group =>   4
Atom  93H    basis set group =>   4
Atom  94H    basis set group =>   4
Atom  95H    basis set group =>   4
Atom  96N    basis set group =>   1
Atom  97C    basis set group =>   2
Atom  98C    basis set group =>   2
Atom  99O    basis set group =>   3
Atom 100C    basis set group =>   2
Atom 101H    basis set group =>   4
Atom 102H    basis set group =>   4
Atom 103C    basis set group =>   2
Atom 104H    basis set group =>   4
Atom 105H    basis set group =>   4
Atom 106C    basis set group =>   2
Atom 107H    basis set group =>   4
Atom 108H    basis set group =>   4
Atom 109N    basis set group =>   1
Atom 110H    basis set group =>   4
Atom 111C    basis set group =>   2
Atom 112N    basis set group =>   1
Atom 113H    basis set group =>   4
Atom 114H    basis set group =>   4
Atom 115N    basis set group =>   1
Atom 116H    basis set group =>   4
Atom 117H    basis set group =>   4
Atom 118H    basis set group =>   4
Atom 119H    basis set group =>   4
Atom 120N    basis set group =>   1
Atom 121C    basis set group =>   2
Atom 122C    basis set group =>   2
Atom 123O    basis set group =>   3
Atom 124H    basis set group =>   4
Atom 125C    basis set group =>   2
Atom 126H    basis set group =>   4
Atom 127H    basis set group =>   4
Atom 128O    basis set group =>   3
Atom 129H    basis set group =>   4
Atom 130H    basis set group =>   4
Atom 131N    basis set group =>   1
Atom 132C    basis set group =>   2
Atom 133C    basis set group =>   2
Atom 134O    basis set group =>   3
Atom 135C    basis set group =>   2
Atom 136C    basis set group =>   2
Atom 137C    basis set group =>   2
Atom 138H    basis set group =>   4
Atom 139C    basis set group =>   2
Atom 140H    basis set group =>   4
Atom 141H    basis set group =>   4
Atom 142H    basis set group =>   4
Atom 143H    basis set group =>   4
Atom 144H    basis set group =>   4
Atom 145H    basis set group =>   4
Atom 146H    basis set group =>   4
Atom 147H    basis set group =>   4
Atom 148H    basis set group =>   4
Atom 149H    basis set group =>   4
Atom 150N    basis set group =>   1
Atom 151C    basis set group =>   2
Atom 152C    basis set group =>   2
Atom 153O    basis set group =>   3
Atom 154C    basis set group =>   2
Atom 155C    basis set group =>   2
Atom 156C    basis set group =>   2
Atom 157C    basis set group =>   2
Atom 158N    basis set group =>   1
Atom 159H    basis set group =>   4
Atom 160H    basis set group =>   4
Atom 161H    basis set group =>   4
Atom 162H    basis set group =>   4
Atom 163H    basis set group =>   4
Atom 164H    basis set group =>   4
Atom 165H    basis set group =>   4
Atom 166H    basis set group =>   4
Atom 167H    basis set group =>   4
Atom 168H    basis set group =>   4
Atom 169H    basis set group =>   4
Atom 170H    basis set group =>   4
Atom 171H    basis set group =>   4
Atom 172O    basis set group =>   3
--------------------------------------------------------------------------
WARNING: No preset parameters were found for the device that Open MPI
detected:

  Local host:            c0703a-s19
  Device name:           mlx5_0
  Device vendor ID:      0x02c9
  Device vendor part ID: 4123

Default device parameters will be used, which may result in lower
performance.  You can edit any of the files specified by the
btl_openib_device_param_files MCA parameter to set values for your
device.

NOTE: You can turn off this warning by setting the MCA parameter
      btl_openib_warn_no_device_params_found to 0.
--------------------------------------------------------------------------
--------------------------------------------------------------------------
WARNING: There was an error initializing an OpenFabrics device.

  Local host:   c0703a-s19
  Local device: mlx5_0
--------------------------------------------------------------------------


           ************************************************************
           *        Program running with 15 parallel MPI-processes    *
           *              working on a common directory               *
           ************************************************************
------------------------------------------------------------------------------
                           ORCA GTO INTEGRAL CALCULATION
------------------------------------------------------------------------------

                         BASIS SET STATISTICS AND STARTUP INFO

 # of primitive gaussian shells          ... 1012
 # of primitive gaussian functions       ... 1508
 # of contracted shells                  ...  338
 # of contracted basis functions         ...  506
 Highest angular momentum                ...    2
 Maximum contraction depth               ...    3
 Integral package used                   ... LIBINT
 Integral threshhold            Thresh   ...  1.000e-10
 Primitive cut-off              TCut     ...  1.000e-11


------------------------------ INTEGRAL EVALUATION ----------------------------


 * One electron integrals 
 Pre-screening matrix                    ... done
 Shell pair data                         ... done (   0.008 sec)

[c0703a-s19.ufhpc:38289] 14 more processes have sent help message help-mpi-btl-openib.txt / no device params found
[c0703a-s19.ufhpc:38289] Set MCA parameter "orte_base_help_aggregate" to 0 to see all help / error messages
[c0703a-s19.ufhpc:38289] 14 more processes have sent help message help-mpi-btl-openib.txt / error in device init
--------------------------------------------------------------------------
WARNING: No preset parameters were found for the device that Open MPI
detected:

  Local host:            c0703a-s19
  Device name:           mlx5_0
  Device vendor ID:      0x02c9
  Device vendor part ID: 4123

Default device parameters will be used, which may result in lower
performance.  You can edit any of the files specified by the
btl_openib_device_param_files MCA parameter to set values for your
device.

NOTE: You can turn off this warning by setting the MCA parameter
      btl_openib_warn_no_device_params_found to 0.
--------------------------------------------------------------------------
--------------------------------------------------------------------------
WARNING: There was an error initializing an OpenFabrics device.

  Local host:   c0703a-s19
  Local device: mlx5_0
--------------------------------------------------------------------------


           ************************************************************
           *        Program running with 15 parallel MPI-processes    *
           *              working on a common directory               *
           ************************************************************
-------------------------------------------------------------------------------
                                 ORCA SCF
-------------------------------------------------------------------------------

------------
SCF SETTINGS
------------
Hamiltonian:
 Ab initio Hamiltonian  Method          .... Hartree-Fock(GTOs)


General Settings:
 Integral files         IntName         .... HKRNMRSIK
 Hartree-Fock type      HFTyp           .... RHF
 Total Charge           Charge          ....    0
 Multiplicity           Mult            ....    1
 Number of Electrons    NEL             ....  632
 Basis Dimension        Dim             ....  506
 Nuclear Repulsion      ENuc            ....  13409.9163187335 Eh

Convergence Acceleration:
 DIIS                   CNVDIIS         .... off
 Newton-Raphson         CNVNR           .... off
 SOSCF                  CNVSOSCF        .... off
 Level Shifting         CNVShift        .... off
 Zerner damping         CNVZerner       .... off
 Static damping         CNVDamp         .... off
 Fernandez-Rico         CNVRico         .... off

SCF Procedure:
 Maximum # iterations   MaxIter         .... 10000
 SCF integral mode      SCFMode         .... Direct
   Integral package                     .... LIBINT
 Reset frequency        DirectResetFreq ....    20
 Integral Threshold     Thresh          ....  1.000e-10 Eh
 Primitive CutOff       TCut            ....  1.000e-11 Eh

Convergence Tolerance:
 Convergence Check Mode ConvCheckMode   .... All-Criteria
 Convergence forced     ConvForced      .... 0
 Energy Change          TolE            ....  1.000e-06 Eh
 Max Density Change     TolMaxP         ....  1.000e-05
 RMS Density Change     TolRMSP         ....  1.000e-06


Diagonalization of the overlap matrix:
Smallest eigenvalue                        ... 1.807e-01
Time for diagonalization                   ...    0.653 sec
Threshold for overlap eigenvalues          ... 1.000e-08
Number of eigenvalues below threshold      ... 0
Time for construction of square roots      ...    0.077 sec
Total time needed                          ...    0.731 sec

--------------------------------
INITIAL GUESS: MINIMAL BASIS EHT
--------------------------------
The minimal basis has 501 functions
EHT matrix was diagonalized
Basis set overlap was calculated now projecting the orbitals
Using GuessMode=FMatrix for the initial guess
C*T matrix was formed
Effective Fockian was calculated
Effective Fockian was diagonalized
Initial density was built
                      ------------------
                      INITIAL GUESS DONE
                      ------------------

--------------------
CPCM SOLVATION MODEL
--------------------
CPCM parameters:
  Epsilon                                         ...      78.3550
  Refrac                                          ...       1.3300
  Rsolv                                           ...       1.3000
  Surface type                                    ...    GEPOL SES
  Epsilon function type                           ...         CPCM
Solvent:                                     ... WATER
SMD-CDS solvent descriptors:
  Soln                                       ...    1.3328
  Soln25                                     ...    1.3323
  Sola                                       ...    0.0000
  Solb                                       ...    0.0000
  Solg                                       ...    0.0000
  Solc                                       ...    0.0000
  Solh                                       ...    0.0000
Radii:
 Radius for N  used is    3.5716 Bohr (=   1.8900 Ang.)
 Radius for C  used is    3.4960 Bohr (=   1.8500 Ang.)
 Radius for O  used is    2.8724 Bohr (=   1.5200 Ang.)
 Radius for H  used is    2.2677 Bohr (=   1.2000 Ang.)
 Radius for S  used is    4.7054 Bohr (=   2.4900 Ang.)
Calculating surface                               ...        [c0703a-s19.ufhpc:38570] 14 more processes have sent help message help-mpi-btl-openib.txt / no device params found
[c0703a-s19.ufhpc:38570] Set MCA parameter "orte_base_help_aggregate" to 0 to see all help / error messages
[c0703a-s19.ufhpc:38570] 14 more processes have sent help message help-mpi-btl-openib.txt / error in device init
done! (  0.7s)
GEPOL surface points                              ...         8144
GEPOL Volume                                      ...    8484.7985
GEPOL Surface-area                                ...    4334.9142
Calculating surface distance matrix               ...        done! (  0.4s)
Performing Cholesky decomposition & store         ...        done! (  5.1s)
Overall time for CPCM initialization              ...                 6.3s
--------------
SCF ITERATIONS
--------------
ITER       Energy         Delta-E        Max-DP      RMS-DP      [F,P]   Gradient Norm
               ***  Starting incremental Fock matrix formation  ***
                             ****Resetting KDIIS****
                             ****Turning on KDIIS(Cayley)****
  0  -4220.7355030160   0.000000000000 0.05489588  0.00104260  0.5774633   0.198382654
  1  -4221.8416521230  -1.106149106909 0.08986909  0.00156275  0.5221653   0.178598019
  2  -4223.2947932199  -1.453141096969 0.19096204  0.00261213  0.4199300   0.144101195
  3  -4225.0280555190  -1.733262299029 0.30063290  0.00446148  0.2555424   0.088127008
  4  -4226.1562485462  -1.128193027274 0.14229223  0.00088990  0.0374125   0.004096978
  5  -4226.1744852499  -0.018236703652 0.05437384  0.00028184  0.0365305   0.003416651
  6  -4226.1737311448   0.000754105033 0.37549479  0.00202468  0.0361269   0.003384029
  7  -4226.1970272202  -0.023296075404 0.33779784  0.00180343  0.0222782   0.004421180
  8  -4226.2385810604  -0.041553840181 0.37827233  0.00212838  0.0173601   0.003388162
  9  -4226.2640646078  -0.025483547326 0.10645009  0.00080219  0.0079823   0.002645638
 10  -4226.2709856259  -0.006921018140 0.18260872  0.00101416  0.0064728   0.001330615
 11  -4226.2739452508  -0.002959624951 0.05523416  0.00028584  0.0031458   0.001190885
 12  -4226.2746133265  -0.000668075668 0.01374219  0.00015356  0.0016576   0.000682503
 13  -4226.2751089911  -0.000495664562 0.01772211  0.00013051  0.0018594   0.000333654
 14  -4226.2753787632  -0.000269772107 0.02352427  0.00020255  0.0022361   0.000325901
 15  -4226.2751372012   0.000241562019 0.00785439  0.00003889  0.0019553   0.000316418
 16  -4226.2751089056   0.000028295598 0.02924577  0.00014146  0.0019225   0.000323552
 17  -4226.2750690883   0.000039817268 0.00427490  0.00002229  0.0018624   0.000316492
 18  -4226.2750650792   0.000004009062 0.02793410  0.00013294  0.0019028   0.000307318
 19  -4226.2750885322  -0.000023452933 0.07798989  0.00037973  0.0015826   0.000339877
               *** Restarting incremental Fock matrix formation ***
                             ****Resetting KDIIS****
 20  -4226.2753938656  -0.000305333418 0.00097251  0.00000754  0.0008085   0.000330553
 21  -4226.2754107214  -0.000016855785 0.00268451  0.00001926  0.0007803   0.000313450
 22  -4226.2754486862  -0.000037964871 0.00250683  0.00002160  0.0007884   0.000282842
 23  -4226.2754914760  -0.000042789768 0.00740307  0.00005019  0.0008261   0.000242407
 24  -4226.2755338363  -0.000042360309 0.01429939  0.00010951  0.0006202   0.000176622
 25  -4226.2756146623  -0.000080825965 0.03938269  0.00022892  0.0006111   0.000147170
 26  -4226.2757934015  -0.000178739251 0.01803919  0.00009156  0.0005422   0.000111819
 27  -4226.2758548225  -0.000061420986 0.02000285  0.00010536  0.0005492   0.000098006
 28  -4226.2759180638  -0.000063241305 0.01638715  0.00008520  0.0005002   0.000096149
 29  -4226.2759740587  -0.000055994913 0.05422837  0.00027609  0.0005324   0.000083848
 30  -4226.2758004535   0.000173605261 0.00895645  0.00005157  0.0005618   0.000114195
 31  -4226.2758270098  -0.000026556350 0.00290727  0.00001788  0.0005240   0.000114333
 32  -4226.2758169890   0.000010020794 0.00782642  0.00005264  0.0005172   0.000120334
 33  -4226.2757899985   0.000026990542 0.03412345  0.00017398  0.0005219   0.000124082
 34  -4226.2758978597  -0.000107861239 0.01315192  0.00006652  0.0005252   0.000094828
 35  -4226.2759364048  -0.000038545111 0.02667167  0.00013236  0.0005387   0.000088781
 36  -4226.2758571749   0.000079229902 0.01055598  0.00006835  0.0005368   0.000097002
 37  -4226.2758405835   0.000016591431 0.01399653  0.00009392  0.0004898   0.000095458
 38  -4226.2758683974  -0.000027813920 0.00142539  0.00001178  0.0005219   0.000084094
 39  -4226.2758703716  -0.000001974188 0.03380531  0.00015341  0.0005282   0.000082652
               *** Restarting incremental Fock matrix formation ***
                             ****Resetting KDIIS****
 40  -4226.2757854788   0.000084892792 0.00085023  0.00000392  0.0005057   0.000094894
[...]
5299  -4226.2760463011   0.000332019672 0.15237838  0.00086374  0.0008444   0.000442111
               *** Restarting incremental Fock matrix formation ***
                             ****Resetting KDIIS****
5300  -4226.2766561870  -0.000609885912 0.00057552  0.00000549  0.0006012   0.000342229
5301  -4226.2766692150  -0.000013028031 0.00083552  0.00001009  0.0005283   0.000306883
5302  -4226.2766896236  -0.000020408590 0.00269345  0.00002945  0.0004297   0.000257004
5303  -4226.2767292190  -0.000039595392 0.00675787  0.00003999  0.0003831   0.000178585
5304  -4226.2767140341   0.000015184844 0.03333798  0.00022372  0.0006846   0.000110518
5305  -4226.2765514782   0.000162555914 0.00648020  0.00004371  0.0005656   0.000103118
5306  -4226.2765845753  -0.000033097022 0.00754844  0.00004838  0.0006268   0.000098141
5307  -4226.2766200919  -0.000035516643 0.03951661  0.00024756  0.0006494   0.000102481
5308  -4226.2764426869   0.000177404968 0.09945792  0.00058149  0.0005613   0.000106669
5309  -4226.2760506646   0.000392022303 0.04312381  0.00025343  0.0004796   0.000231516
5310  -4226.2762287602  -0.000178095541 0.01130736  0.00006151  0.0004021   0.000103564
5311  -4226.2761989176   0.000029842588 0.00754213  0.00004927  0.0004737   0.000093948
5312  -4226.2762280703  -0.000029152743 0.01605804  0.00009686  0.0006527   0.000115166
5313  -4226.2761702149   0.000057855422 0.00394443  0.00002065  0.0003882   0.000097726
                          ***Energy convergence achieved***
5314  -4226.2761701863   0.000000028609 0.00676076  0.00004521  0.0004210   0.000095734
5315  -4226.2761845756  -0.000014389303 0.01254692  0.00006947  0.0004417   0.000098700
5316  -4226.2761465157   0.000038059903 0.00500523  0.00002741  0.0004265   0.000097295
5317  -4226.2761321326   0.000014383071 0.01785013  0.00010135  0.0004206   0.000097130
5318  -4226.2760874042   0.000044728446 0.02615431  0.00014294  0.0003798   0.000102953
5319  -4226.2760281198   0.000059284403 0.05635999  0.00030535  0.0003404   0.000113822
               *** Restarting incremental Fock matrix formation ***
                             ****Resetting KDIIS****
5320  -4226.2762029650  -0.000174845237 0.00079877  0.00000485  0.0005331   0.000091780
5321  -4226.2762062279  -0.000003262910 0.00296708  0.00001996  0.0005129   0.000087366
5322  -4226.2762189923  -0.000012764387 0.00540555  0.00003992  0.0005076   0.000088863
5323  -4226.2761937415   0.000025250836 0.01927166  0.00013107  0.0004940   0.000094645
5324  -4226.2761314237   0.000062317756 0.00797865  0.00004775  0.0005146   0.000084570
5325  -4226.2761015959   0.000029827786 0.01002974  0.00006255  0.0004884   0.000087255
5326  -4226.2760658065   0.000035789396 0.04617846  0.00027600  0.0004202   0.000107130
5327  -4226.2759177684   0.000148038091 0.00416695  0.00004083  0.0004200   0.000111763
5328  -4226.2759417408  -0.000023972352 0.00336629  0.00001528  0.0004584   0.000088126
5329  -4226.2759368740   0.000004866746 0.00228299  0.00001417  0.0004544   0.000093118
5330  -4226.2759281863   0.000008687698 0.02985400  0.00018537  0.0004296   0.000094698
5331  -4226.2760099057  -0.000081719381 0.00163934  0.00000921  0.0004293   0.000084394
5332  -4226.2760130890  -0.000003183254 0.01956999  0.00009703  0.0003974   0.000087975
5333  -4226.2759811173   0.000031971649 0.01279317  0.00006783  0.0004653   0.000096253
5334  -4226.2760204451  -0.000039327776 0.00772770  0.00004129  0.0004763   0.000092700
5335  -4226.2760442601  -0.000023815015 0.00212472  0.00001405  0.0004801   0.000092291
5336  -4226.2760387173   0.000005542806 0.03952002  0.00026006  0.0004902   0.000091605
5337  -4226.2761699339  -0.000131216620 0.01035502  0.00004918  0.0004087   0.000089205
5338  -4226.2761551632   0.000014770701 0.01199694  0.00007079  0.0004081   0.000091684
5339  -4226.2761184610   0.000036702269 0.00916899  0.00005448  0.0004278   0.000080324
               *** Restarting incremental Fock matrix formation ***
                             ****Resetting KDIIS****
5340  -4226.2761438917  -0.000025430712 0.00066869  0.00000374  0.0004472   0.000087385
5341  -4226.2761462193  -0.000002327620 0.00218028  0.00001199  0.0004453   0.000085593
5342  -4226.2761533886  -0.000007169336 0.00798162  0.00004456  0.0004432   0.000084819
5343  -4226.2761271788   0.000026209797 0.00899148  0.00004287  0.0004354   0.000084457
5344  -4226.2761370835  -0.000009904673 0.07846745  0.00040652  0.0005278   0.000080032
5345  -4226.2759004426   0.000236640920 0.01706767  0.00008591  0.0004115   0.000115733
5346  -4226.2758497903   0.000050652262 0.00960198  0.00005476  0.0003755   0.000134042
5347  -4226.2757990168   0.000050773520 0.01442663  0.00008500  0.0005197   0.000236783
5348  -4226.2758715474  -0.000072530638 0.00412921  0.00002209  0.0004059   0.000101088
5349  -4226.2758608742   0.000010673250 0.03668883  0.00018454  0.0003822   0.000105163
5350  -4226.2759628611  -0.000101986951 0.11059239  0.00054465  0.0004693   0.000082256
5351  -4226.2756579995   0.000304861671 0.31457778  0.00166315  0.0003965   0.000133949
5352  -4226.2763463128  -0.000688313288 0.00341752  0.00003997  0.0018024   0.000787565
5353  -4226.2765318431  -0.000185530287 0.02345263  0.00014975  0.0010111   0.000553191
5354  -4226.2764401329   0.000091710183 0.01761411  0.00010276  0.0009868   0.000521105
5355  -4226.2763708875   0.000069245354 0.28558847  0.00150237  0.0015456   0.000727535
5356  -4226.2757152786   0.000655608866 0.00354881  0.00002360  0.0008185   0.000221000
5357  -4226.2757322144  -0.000016935720 0.00260780  0.00001357  0.0007497   0.000133577
5358  -4226.2757410709  -0.000008856504 0.03290023  0.00016393  0.0007057   0.000105114
5359  -4226.2758205307  -0.000079459805 0.15549140  0.00081254  0.0008407   0.000169420
               *** Restarting incremental Fock matrix formation ***
                             ****Resetting KDIIS****
5360  -4226.2762939003  -0.000473369583 0.00145870  0.00000725  0.0010100   0.000139203
5361  -4226.2763004915  -0.000006591216 0.00351619  0.00001837  0.0009343   0.000119966
5362  -4226.2763139021  -0.000013410646 0.00868068  0.00004682  0.0008739   0.000104838
5363  -4226.2763457299  -0.000031827783 0.03036176  0.00018196  0.0007669   0.000084201
5364  -4226.2762334332   0.000112296692 0.02665535  0.00015378  0.0005303   0.000081302
5365  -4226.2761465758   0.000086857393 0.01296842  0.00007111  0.0005068   0.000085746
5366  -4226.2761007159   0.000045859969 0.02584571  0.00014100  0.0003903   0.000120620
5367  -4226.2761872187  -0.000086502862 0.03565809  0.00019512  0.0005653   0.000086764
5368  -4226.2762958160  -0.000108597326 0.13682795  0.00072157  0.0003561   0.000143738
5369  -4226.2758859122   0.000409903831 0.02775102  0.00013800  0.0003747   0.000133816
5370  -4226.2758121405   0.000073771703 0.12087962  0.00061856  0.0003794   0.000138175
5371  -4226.2761254556  -0.000313315096 0.00370772  0.00002145  0.0004629   0.000265286
5372  -4226.2761481563  -0.000022700705 0.00682210  0.00004829  0.0003265   0.000181112
5373  -4226.2761711708  -0.000023014525 0.06153758  0.00034533  0.0003503   0.000204387
5374  -4226.2763099510  -0.000138780202 0.05286691  0.00028693  0.0007464   0.000402434
5375  -4226.2762097833   0.000100167724 0.07665661  0.00043648  0.0009677   0.000170009
5376  -4226.2764992521  -0.000289468769 0.15670293  0.00087997  0.0005605   0.000102993
5377  -4226.2759494909   0.000549761131 0.08401505  0.00045857  0.0003737   0.000207829
5378  -4226.2762042277  -0.000254736742 0.04429797  0.00024502  0.0003875   0.000212758
5379  -4226.2760103783   0.000193849378 0.11396347  0.00058535  0.0007334   0.000372137
               *** Restarting incremental Fock matrix formation ***
                             ****Resetting KDIIS****
5380  -4226.2756541939   0.000356184377 0.00062466  0.00000648  0.0008634   0.000448369
5381  -4226.2756755200  -0.000021326026 0.00106964  0.00001277  0.0007671   0.000404040
5382  -4226.2757094676  -0.000033947617 0.00297600  0.00002676  0.0006316   0.000332693
5383  -4226.2757574911  -0.000048023552 0.00485823  0.00004185  0.0004123   0.000215774
5384  -4226.2758002336  -0.000042742496 0.01248562  0.00006134  0.0004465   0.000080983
5385  -4226.2757698535   0.000030380087 0.00808945  0.00004317  0.0005738   0.000061697
5386  -4226.2757485051   0.000021348398 0.00295391  0.00001332  0.0005812   0.000066514
5387  -4226.2757523501  -0.000003844918 0.01560633  0.00006536  0.0005930   0.000067394
5388  -4226.2757823578  -0.000030007709 0.01429058  0.00006460  0.0004695   0.000077613
5389  -4226.2758160632  -0.000033705393 0.05285667  0.00024181  0.0004386   0.000080017
5390  -4226.2759420498  -0.000125986667 0.03683294  0.00017519  0.0003493   0.000098062
5391  -4226.2760350308  -0.000092980988 0.01400705  0.00006919  0.0003246   0.000116470
5392  -4226.2760732685  -0.000038237642 0.00597506  0.00003015  0.0003132   0.000113330
5393  -4226.2760865550  -0.000013286580 0.05630779  0.00028051  0.0003498   0.000114160
5394  -4226.2759242172   0.000162337808 0.14291344  0.00065892  0.0003774   0.000140901
5395  -4226.2755223264   0.000401890830 0.10165625  0.00045660  0.0005880   0.000323610
5396  -4226.2757823241  -0.000259997685 0.12744603  0.00061613  0.0005069   0.000277904
5397  -4226.2760693399  -0.000287015780 0.03455747  0.00017695  0.0008168   0.000418165
5398  -4226.2759624031   0.000106936733 0.07038523  0.00036609  0.0008501   0.000427576
5399  -4226.2761247636  -0.000162360435 0.07467154  0.00039598  0.0011023   0.000526082
               *** Restarting incremental Fock matrix formation ***
                             ****Resetting KDIIS****
5400  -4226.2759134677   0.000211295855 0.00082998  0.00000762  0.0009243   0.000474108
5401  -4226.2759383896  -0.000024921935 0.00115751  0.00001290  0.0008165   0.000424781
5402  -4226.2759754905  -0.000037100884 0.00261674  0.00002620  0.0006706   0.000350012
5403  -4226.2760274265  -0.000051935931 0.01242362  0.00009304  0.0004321   0.000228277
5404  -4226.2761087901  -0.000081363667 0.03808980  0.00021593  0.0004781   0.000080630
5405  -4226.2759808289   0.000127961233 0.00497539  0.00002962  0.0004315   0.000086918
5406  -4226.2759633027   0.000017526207 0.00243643  0.00001444  0.0003929   0.000091065
5407  -4226.2759706106  -0.000007307934 0.01820156  0.00009919  0.0003824   0.000094962
5408  -4226.2760294859  -0.000058875255 0.02081626  0.00011163  0.0004585   0.000086228
5409  -4226.2759649366   0.000064549309 0.01859260  0.00011337  0.0004458   0.000088401
5410  -4226.2759076626   0.000057273953 0.01106875  0.00004776  0.0003636   0.000094821
5411  -4226.2759147909  -0.000007128259 0.01093895  0.00005121  0.0004153   0.000081935
5412  -4226.2759187754  -0.000003984534 0.00098532  0.00000570  0.0004087   0.000085102
5413  -4226.2759160196   0.000002755846 0.01902584  0.00009850  0.0004067   0.000085294
5414  -4226.2758599883   0.000056031233 0.00938486  0.00004474  0.0003980   0.000092769
5415  -4226.2758362209   0.000023767409 0.03429325  0.00017596  0.0004130   0.000089911
5416  -4226.2759286723  -0.000092451341 0.00500472  0.00002140  0.0003464   0.000094486
                          ***Energy convergence achieved***
5417  -4226.2759285286   0.000000143629 0.01948353  0.00008126  0.0003509   0.000088815
5418  -4226.2759276952   0.000000833451 0.06282804  0.00032615  0.0003650   0.000094165
5419  -4226.2761069295  -0.000179234335 0.04508337  0.00024511  0.0004031   0.000133605
               *** Restarting incremental Fock matrix formation ***
                             ****Resetting KDIIS****
5420  -4226.2762537728  -0.000146843279 0.00037898  0.00000337  0.0003869   0.000146883
5421  -4226.2762570696  -0.000003296761 0.00044326  0.00000418  0.0003756   0.000139524
5422  -4226.2762612814  -0.000004211798 0.00112737  0.00000639  0.0003516   0.000125971
                          ***Energy convergence achieved***
5423  -4226.2762607354   0.000000545963 0.00510354  0.00003109  0.0003866   0.000108421
5424  -4226.2762453804   0.000015355027 0.01276657  0.00008029  0.0004905   0.000094289
5425  -4226.2762973766  -0.000051996280 0.00961598  0.00005926  0.0005484   0.000082181
5426  -4226.2762592047   0.000038171909 0.01380039  0.00008221  0.0005122   0.000084474
5427  -4226.2762069745   0.000052230203 0.02886576  0.00016387  0.0004717   0.000087474
5428  -4226.2761086754   0.000098299142 0.17966196  0.00095754  0.0004529   0.000082166
5429  -4226.2754468510   0.000661824371 0.00316571  0.00001578  0.0008555   0.000441203
5430  -4226.2754333627   0.000013488355 0.09485627  0.00048570  0.0008762   0.000449790
5431  -4226.2757820735  -0.000348710800 0.10779560  0.00059236  0.0005209   0.000286603
5432  -4226.2761551981  -0.000373124626 0.06095990  0.00034340  0.0004749   0.000222905
5433  -4226.2759320965   0.000223101561 0.07165330  0.00039029  0.0005565   0.000267090
5434  -4226.2760338863  -0.000101789792 0.05835004  0.00032716  0.0009625   0.000546076
5435  -4226.2758775089   0.000156377393 0.04486939  0.00034335  0.0008557   0.000476608
5436  -4226.2761355667  -0.000258057797 0.06887787  0.00038600  0.0014301   0.000342474
5437  -4226.2764428531  -0.000307286382 0.02044240  0.00013057  0.0004850   0.000124915
5438  -4226.2765425574  -0.000099704246 0.05958948  0.00042022  0.0005604   0.000115665
5439  -4226.2767479344  -0.000205377063 0.09728174  0.00062573  0.0008046   0.000432191
               *** Restarting incremental Fock matrix formation ***
                             ****Resetting KDIIS****
5440  -4226.2763786828   0.000369251627 0.00095802  0.00000525  0.0006742   0.000091989
5441  -4226.2763822698  -0.000003587009 0.00309929  0.00001883  0.0006389   0.000087858
5442  -4226.2763949064  -0.000012636557 0.00313157  0.00002049  0.0006326   0.000088543
5443  -4226.2763810675   0.000013838813 0.04226415  0.00026165  0.0006130   0.000091606
5444  -4226.2762202873   0.000160780202 0.00110103  0.00000952  0.0004800   0.000087519
5445  -4226.2762252214  -0.000004934103 0.01094743  0.00006378  0.0005066   0.000084298
5446  -4226.2761898584   0.000035363058 0.06073712  0.00033919  0.0005234   0.000079921
5447  -4226.2759898759   0.000199982484 0.01535651  0.00008478  0.0003371   0.000122319
5448  -4226.2760270215  -0.000037145556 0.01162271  0.00006221  0.0004008   0.000142950
5449  -4226.2760064605   0.000020560934 0.00813262  0.00005705  0.0003478   0.000092659
5450  -4226.2759881854   0.000018275156 0.01303058  0.00007209  0.0003818   0.000085165
5451  -4226.2760237277  -0.000035542358 0.01531091  0.00008516  0.0004028   0.000083521
5452  -4226.2760657730  -0.000042045251 0.00422879  0.00002282  0.0003949   0.000086444
5453  -4226.2760580432   0.000007729785 0.00427878  0.00002327  0.0004629   0.000082319
5454  -4226.2760452109   0.000012832283 0.03047841  0.00016477  0.0004571   0.000081614
5455  -4226.2761408797  -0.000095668816 0.03100139  0.00017311  0.0004187   0.000091207
5456  -4226.2762445078  -0.000103628093 0.23314857  0.00122674  0.0003885   0.000101995
5457  -4226.2753217395   0.000922768346 0.53357476  0.00334123  0.0011978   0.000618951
5458  -4226.2765739302  -0.001252190690 0.31723222  0.00215722  0.0065690   0.001733405
5459  -4226.2762690078   0.000304922405 0.03941377  0.00022884  0.0008937   0.000115083
               *** Restarting incremental Fock matrix formation ***
                             ****Resetting KDIIS****
5460  -4226.2764224250  -0.000153417259 0.00113966  0.00000606  0.0007999   0.000079707
5461  -4226.2764266442  -0.000004219216 0.00346563  0.00002062  0.0007524   0.000076112
5462  -4226.2764410058  -0.000014361547 0.00093987  0.00000542  0.0007344   0.000077469
5463  -4226.2764433107  -0.000002304886 0.00785603  0.00004022  0.0007023   0.000082229
5464  -4226.2764271551   0.000016155611 0.00950209  0.00005760  0.0005858   0.000081540
5465  -4226.2764652496  -0.000038094542 0.01985482  0.00012153  0.0005913   0.000085915
5466  -4226.2763826458   0.000082603822 0.10486401  0.00059240  0.0004968   0.000096951
5467  -4226.2760054320   0.000377213762 0.01191262  0.00006207  0.0004214   0.000185435
5468  -4226.2759709650   0.000034466983 0.07068813  0.00036912  0.0004508   0.000185484
5469  -4226.2756999527   0.000271012328 0.06171219  0.00031202  0.0008140   0.000379430
5470  -4226.2758703621  -0.000170409367 0.15987971  0.00089468  0.0008286   0.000391815
5471  -4226.2763533448  -0.000482982727 0.06097694  0.00040302  0.0009876   0.000549673
5472  -4226.2766661024  -0.000312757584 0.02548461  0.00017341  0.0009138   0.000530655
5473  -4226.2765381455   0.000127956848 0.17615249  0.00127909  0.0008994   0.000518300
5474  -4226.2777731578  -0.001235012290 0.24997470  0.00176938  0.0006660   0.000397978
5475  -4226.2761894693   0.001583688507 0.11038446  0.00064960  0.0019194   0.000521364
5476  -4226.2767616471  -0.000572177757 0.01655166  0.00011149  0.0006083   0.000203413
5477  -4226.2766769593   0.000084687797 0.12172875  0.00073150  0.0006233   0.000199709
5478  -4226.2761868550   0.000490104312 0.25140562  0.00131762  0.0004257   0.000164089
5479  -4226.2747356297   0.001451225300 0.20569839  0.00106803  0.0022601   0.001094812
               *** Restarting incremental Fock matrix formation ***
                             ****Resetting KDIIS****
5480  -4226.2759818374  -0.001246207714 0.00054070  0.00000564  0.0007722   0.000364888
5481  -4226.2759964627  -0.000014625367 0.00088451  0.00001083  0.0006819   0.000326131
5482  -4226.2760189009  -0.000022438162 0.00398985  0.00003091  0.0005551   0.000269225
5483  -4226.2760580482  -0.000039147284 0.02585596  0.00015148  0.0003331   0.000174154
5484  -4226.2761611305  -0.000103082271 0.02692354  0.00014590  0.0005144   0.000080380
5485  -4226.2760752239   0.000085906545 0.00447432  0.00002313  0.0004697   0.000077201
5486  -4226.2760880130  -0.000012789124 0.00808721  0.00004523  0.0004553   0.000081083
5487  -4226.2760615793   0.000026433733 0.02558668  0.00014059  0.0004429   0.000081143
5488  -4226.2761439469  -0.000082367606 0.01230554  0.00007134  0.0005054   0.000084366
5489  -4226.2761033419   0.000040604999 0.03396189  0.00018667  0.0004273   0.000092460
5490  -4226.2762143659  -0.000111024016 0.10907977  0.00057528  0.0004492   0.000096787
5491  -4226.2758773972   0.000336968741 0.05626336  0.00027688  0.0002974   0.000140968
5492  -4226.2757208608   0.000156536375 0.01525748  0.00007230  0.0003968   0.000162476
5493  -4226.2757576180  -0.000036757169 0.02399303  0.00011824  0.0004177   0.000170847
5494  -4226.2758280409  -0.000070422908 0.14770769  0.00075379  0.0003911   0.000141005
5495  -4226.2761828020  -0.000354761085 0.12614283  0.00075712  0.0007732   0.000400011
5496  -4226.2764520286  -0.000269226666 0.25547104  0.00138399  0.0019214   0.000804345
5497  -4226.2758805103   0.000571518345 0.00609523  0.00003370  0.0010106   0.000244452
5498  -4226.2758217184   0.000058791895 0.01247880  0.00006202  0.0012874   0.000385102
5499  -4226.2758572578  -0.000035539359 0.15708111  0.00079408  0.0013219   0.000382926
               *** Restarting incremental Fock matrix formation ***
                             ****Resetting KDIIS****
5500  -4226.2754601949   0.000397062863 0.00068913  0.00000507  0.0005528   0.000244787
5501  -4226.2754681689  -0.000007973986 0.00252605  0.00001390  0.0004945   0.000222337
5502  -4226.2754841482  -0.000015979285 0.00780554  0.00004007  0.0004375   0.000187378
5503  -4226.2755180150  -0.000033866828 0.04235982  0.00020665  0.0004376   0.000129671
5504  -4226.2756433037  -0.000125288720 0.00542353  0.00002603  0.0004645   0.000074349
5505  -4226.2756285434   0.000014760350 0.00949805  0.00004538  0.0004650   0.000074612
5506  -4226.2756542053  -0.000025661981 0.01675496  0.00009460  0.0004795   0.000073093
slurmstepd: error: *** JOB 5289409 ON c0703a-s19 CANCELLED AT 2023-08-04T06:39:56 DUE TO TIME LIMIT ***
