/home/zfg2013/blue_zfg2013/INPS
c0703a-s21.ufhpc
Fri Aug  4 00:39:52 EDT 2023

                                 *****************
                                 * O   R   C   A *
                                 *****************

           --- An Ab Initio, DFT and Semiempirical electronic structure package ---

                  #######################################################
                  #                        -***-                        #
                  #          Department of theory and spectroscopy      #
                  #               Directorship: Frank Neese             #
                  #        Max Planck Institute fuer Kohlenforschung    #
                  #                Kaiser Wilhelm Platz 1               #
                  #                 D-45470 Muelheim/Ruhr               #
                  #                      Germany                        #
                  #                                                     #
                  #                  All rights reserved                #
                  #                        -***-                        #
                  #######################################################


                         Program Version 4.2.1 -  RELEASE  -


 With contributions from (in alphabetic order):
   Daniel Aravena         : Magnetic Suceptibility
   Michael Atanasov       : Ab Initio Ligand Field Theory (pilot matlab implementation)
   Alexander A. Auer      : GIAO ZORA, VPT2
   Ute Becker             : Parallelization
   Giovanni Bistoni       : ED, misc. LED, open-shell LED, HFLD
   Martin Brehm           : Molecular dynamics
   Dmytro Bykov           : SCF Hessian
   Vijay G. Chilkuri      : MRCI spin determinant printing, contributions to CSF-ICE
   Dipayan Datta          : RHF DLPNO-CCSD density
   Achintya Kumar Dutta   : EOM-CC, STEOM-CC
   Dmitry Ganyushin       : Spin-Orbit,Spin-Spin,Magnetic field MRCI
   Miquel Garcia          : C-PCM Hessian, Gaussian charge scheme
   Yang Guo               : DLPNO-NEVPT2, CIM, IAO-localization
   Andreas Hansen         : Spin unrestricted coupled pair/coupled cluster methods
   Benjamin Helmich-Paris : CASSCF linear response (MC-RPA)
   Lee Huntington         : MR-EOM, pCC
   Robert Izsak           : Overlap fitted RIJCOSX, COSX-SCS-MP3, EOM
   Christian Kollmar      : KDIIS, OOCD, Brueckner-CCSD(T), CCSD density
   Simone Kossmann        : Meta GGA functionals, TD-DFT gradient, OOMP2, MP2 Hessian
   Martin Krupicka        : AUTO-CI
   Lucas Lang             : DCDCAS
   Dagmar Lenk            : GEPOL surface, SMD
   Dimitrios Liakos       : Extrapolation schemes; Compound Job, initial MDCI parallelization
   Dimitrios Manganas     : Further ROCIS development; embedding schemes
   Dimitrios Pantazis     : SARC Basis sets
   Taras Petrenko         : DFT Hessian,TD-DFT gradient, ASA, ECA, R-Raman, ABS, FL, XAS/XES, NRVS
   Peter Pinski           : DLPNO-MP2, DLPNO-MP2 Gradient
   Christoph Reimann      : Effective Core Potentials
   Marius Retegan         : Local ZFS, SOC
   Christoph Riplinger    : Optimizer, TS searches, QM/MM, DLPNO-CCSD(T), (RO)-DLPNO pert. Triples
   Tobias Risthaus        : Range-separated hybrids, TD-DFT gradient, RPA, STAB
   Michael Roemelt        : Original ROCIS implementation
   Masaaki Saitow         : Open-shell DLPNO-CCSD energy and density
   Barbara Sandhoefer     : DKH picture change effects
   Avijit Sen             : IP-ROCIS
   Kantharuban Sivalingam : CASSCF convergence, NEVPT2, FIC-MRCI
   Bernardo de Souza      : ESD, SOC TD-DFT
   Georgi Stoychev        : AutoAux, RI-MP2 NMR
   Willem Van den Heuvel  : Paramagnetic NMR
   Boris Wezisla          : Elementary symmetry handling
   Frank Wennmohs         : Technical directorship


 We gratefully acknowledge several colleagues who have allowed us to
 interface, adapt or use parts of their codes:
   Stefan Grimme, W. Hujo, H. Kruse,             : VdW corrections, initial TS optimization,
                  C. Bannwarth                     DFT functionals, gCP, sTDA/sTD-DF
   Ed Valeev, F. Pavosevic, A. Kumar             : LibInt (2-el integral package), F12 methods
   Garnet Chan, S. Sharma, J. Yang, R. Olivares  : DMRG
   Ulf Ekstrom                                   : XCFun DFT Library
   Mihaly Kallay                                 : mrcc  (arbitrary order and MRCC methods)
   Andreas Klamt, Michael Diedenhofen            : otool_cosmo (COSMO solvation model)
   Jiri Pittner, Ondrej Demel                    : Mk-CCSD
   Frank Weinhold                                : gennbo (NPA and NBO analysis)
   Christopher J. Cramer and Donald G. Truhlar   : smd solvation model
   Lars Goerigk                                  : TD-DFT with DH, B97 family of functionals
   V. Asgeirsson, H. Jonsson                     : NEB implementation
   FAccTs GmbH                                   : IRC, NEB, NEB-TS, Multilevel, MM, QM/MM, CI optimization
   S Lehtola, MJT Oliveira, MAL Marques          : LibXC Library


 Your calculation uses the libint2 library for the computation of 2-el integrals
 For citations please refer to: http://libint.valeyev.net

 Your ORCA version has been built with support for libXC version: 4.2.3
 For citations please refer to: https://tddft.org/programs/libxc/

 This ORCA versions uses:
   CBLAS   interface :  Fast vector & matrix operations
   LAPACKE interface :  Fast linear algebra routines
   SCALAPACK package :  Parallel linear algebra routines


Your calculation utilizes the geometrical counterpoise correction gCP
Please cite in your paper:
H.Kruse, S. Grimme J.Chem.Phys., 136, (2012), 154101 
   

Your calculation utilizes the atom-pairwise dispersion correction
with the Becke-Johnson damping scheme (D3BJ)
Cite in your paper:
S.Grimme, S.Ehrlich, L.Goerigk, J Comput Chem, (2011), 32, 1456–1465 
S.Grimme, J.Antony, S.Ehrlich and H.Krieg, J.Chem.Phys., 132, (2010), 154104 
   

Your calculation utilizes the SMD solvation module
Please cite in your paper:
A.V. Marenich, C.J. Cramer, D.G. Truhlar J. Phys. Chem. B, 113, (2009), 6378 

----- Orbital basis set information -----
Your calculation utilizes the basis: MINIX,
   a combination of small basis sets by S. Grimme (see manual for definitions).

================================================================================
                                        WARNINGS
                       Please study these warnings very carefully!
================================================================================


WARNING: your system is open-shell and RHF/RKS was chosen
  ===> : WILL SWITCH to UHF/UKS


INFO   : the flag for use of LIBINT has been found!

================================================================================
                                       INPUT FILE
================================================================================
NAME = HKTATREPG.inp
|  1> !HF-3c CPCM KDIIS SmallPrint
|  2> %PAL NPROCS 15 END
|  3> %maxcore 10000
|  4> %CPCM
|  5> SMD TRUE
|  6> SMDSOLVENT "WATER"
|  7> END
|  8> 
|  9> %scf
| 10> SCFmode Direct
| 11> maxiter 10000
| 12> 
| 13> end
| 14> 
| 15> %geom
| 16> 
| 17> Constraints
| 18> {C 2 C}
| 19> {C 21 C}
| 20> {C 43 C}
| 21> {C 57 C}
| 22> {C 67 C}
| 23> {C 81 C}
| 24> {C 105 C}
| 25> {C 120 C}
| 26> {C 134 C}
| 27> 
| 28> end
| 29> 
| 30> maxiter 10000
| 31> 
| 32> end
| 33> 
| 34> * xyz 0 2
| 35>    N        0.00000         0.00000         0.00000
| 36>    C        1.46145         0.00000         0.00000
| 37>    C        1.94774         0.00000         1.45615
| 38>    O        1.18426         0.00000         2.41946
| 39>    C        2.04411         1.20336         -0.76878
| 40>    H        2.63381         1.85004         -0.10703
| 41>    H        1.24387         1.83827         -1.17112
| 42>    C        2.90609         0.76454         -1.90397
| 43>    N        2.40386         0.09306         -2.99477
| 44>    C        3.45453         -0.18863         -3.81870
| 45>    H        3.33445         -0.73115         -4.74678
| 46>    N        4.58505         0.27510         -3.33539
| 47>    C        4.25427         0.88487         -2.15432
| 48>    H        5.00749         1.36841         -1.54511
| 49>    H        1.43192         -0.17656         -3.13345
| 50>    H        -0.46323         0.13431         0.89571
| 51>    H        1.77077         -0.95781         -0.43895
| 52>    H        -0.34000         0.08381         -0.95801
| 53>    H        -0.34000         0.94706         -0.16699
| 54>    N        3.26069         -0.00000         1.72406
| 55>    C        3.72296         0.00022         3.10830
| 56>    C        5.25957         0.00016         3.05115
| 57>    O        5.89478         -0.00005         1.99805
| 58>    C        3.17221         -1.22220         3.85582
| 59>    C        3.49760         -1.23091         5.35214
| 60>    C        2.76820         -2.36936         6.07164
| 61>    C        3.16412         -2.43597         7.54599
| 62>    N        2.43343         -3.50207         8.21876
| 63>    H        3.37443         0.85767         3.64516
| 64>    H        3.56358         -2.10444         3.39388
| 65>    H        2.11168         -1.22213         3.71379
| 66>    H        3.21324         -0.29072         5.77650
| 67>    H        4.55447         -1.35132         5.46806
| 68>    H        3.00258         -3.29454         5.58790
| 69>    H        1.71448         -2.20937         5.97690
| 70>    H        2.94242         -1.49942         8.01356
| 71>    H        4.21673         -2.61502         7.61570
| 72>    H        2.75555         -3.57872         9.18352
| 73>    H        2.64374         -4.39381         7.77046
| 74>    H        1.43137         -3.32635         8.14527
| 75>    H        3.96942         -0.42893         1.12898
| 76>    N        5.97225         0.00033         4.18591
| 77>    C        7.43686         0.00004         4.13143
| 78>    C        7.91479         0.00034         5.59179
| 79>    O        7.14268         0.00074         6.54929
| 80>    C        9.48269         1.08418         3.03392
| 81>    C        7.99880         1.22002         3.36010
| 82>    O        7.33230         1.43157         2.10661
| 83>    H        9.81158         1.91465         2.39901
| 84>    H        9.67449         0.16510         2.46907
| 85>    H        10.10417         1.08183         3.93235
| 86>    H        7.84819         2.13313         3.94777
| 87>    H        7.74199         -0.93422         3.64476
| 88>    H        6.94471         0.58049         1.81203
| 89>    H        5.53694         0.37542         5.02463
| 90>    N        9.22610         0.00018         5.86761
| 91>    C        9.67889         0.00068         7.25114
| 92>    C        11.21661         0.00034         7.24705
| 93>    O        11.88828         -0.00025         6.21693
| 94>    H        9.91134         -0.09161         5.12251
| 95>    H        9.33317         0.92659         7.72516
| 96>    C        9.14191         -1.20718         8.01001
| 97>    H        8.04733         -1.22873         7.99767
| 98>    H        9.49777         -2.14233         7.56331
| 99>    H        9.46601         -1.19577         9.05603
|100>    N        11.88970         0.00070         8.40574
|101>    C        13.35532         0.00015         8.40184
|102>    C        13.78256         0.00077         9.87782
|103>    O        12.97787         0.00155         10.80810
|104>    C        15.43799         1.08364         7.37529
|105>    C        13.94375         1.21982         7.65003
|106>    O        13.32095         1.43115         6.37423
|107>    H        15.78875         1.91389         6.75189
|108>    H        15.64901         0.16438         6.81764
|109>    H        16.02810         1.08144         8.29464
|110>    H        13.77312         2.13312         8.23191
|111>    H        13.67690         -0.93429         7.92623
|112>    H        12.94361         0.58005         6.06668
|113>    H        11.42577         0.37609         9.22883
|114>    N        15.08357         0.00045         10.19872
|115>    C        15.48954         0.00126         11.60118
|116>    C        17.02908         0.00063         11.60571
|117>    O        17.69993         -0.00036         10.57457
|118>    C        14.91150         -1.22060         12.33059
|119>    H        15.43335         -2.13149         12.00925
|120>    H        13.86034         -1.35221         12.04454
|121>    C        14.98383         -1.10470         13.85315
|122>    H        14.57411         -0.14022         14.17765
|123>    H        16.02660         -1.13522         14.18623
|124>    C        14.21389         -2.23033         14.53616
|125>    H        14.61471         -3.20862         14.25198
|126>    H        13.15616         -2.19154         14.25993
|127>    N        14.36750         -2.07704         15.98283
|128>    H        15.29923         -1.87318         16.33554
|129>    C        13.37262         -2.20723         16.89596
|130>    N        13.41509         -2.10061         18.19639
|131>    H        13.01299         -2.11761         19.14322
|132>    H        14.30313         -1.87949         18.66644
|133>    N        12.14658         -2.48418         16.72365
|134>    H        11.76552         -2.65372         15.81082
|135>    H        11.56097         -2.53301         17.54327
|136>    H        15.78408         -0.26956         9.51243
|137>    H        15.12796         0.93327         12.05159
|138>    N        17.69567         0.00116         12.76815
|139>    C        19.15624         0.00034         12.77245
|140>    C        19.58636         0.00125         14.25646
|141>    O        18.77490         0.00243         15.18264
|142>    C        19.71846         1.19636         11.99114
|143>    H        18.95358         1.64084         11.34108
|144>    H        20.01737         1.99872         12.67749
|145>    C        20.89561         0.78313         11.10818
|146>    H        21.64426         0.20631         11.66141
|147>    H        20.54699         0.14676         10.28674
|148>    C        21.58398         1.99684         10.55701
|149>    O        22.13934         2.85752         11.22029
|150>    O        21.54407         2.06747         9.21681
|151>    H        17.23332         0.02670         13.67432
|152>    H        19.47718         -0.95224         12.33314
|153>    N        20.88748         0.00077         14.57691
|154>    C        21.29272         0.00185         15.97506
|155>    C        22.82555         0.00108         16.13957
|156>    O        23.62837         -0.00029         15.21231
|157>    H        20.90077         0.89878         16.46824
|158>    C        20.32594         -1.26749         14.16423
|159>    H        19.24556         -1.13705         14.03824
|160>    H        20.75826         -1.58947         13.21224
|161>    C        20.64470         -2.20973         15.31516
|162>    H        21.63549         -2.65745         15.17169
|163>    H        19.91517         -3.01861         15.41049
|164>    C        20.66876         -1.28142         16.52989
|165>    H        21.21147         -1.72120         17.37140
|166>    H        19.63914         -1.08293         16.85260
|167>    N        23.36788         0.00191         17.36492
|168>    C        24.80638         0.00097         17.51931
|169>    C        25.17192         0.00220         19.00028
|170>    O        24.34090         0.00376         19.90513
|171>    H        25.21155         -0.89582         17.03841
|172>    H        25.21389         0.89317         17.03550
|173>    H        22.80234         0.00068         18.20904
|174>    O        26.48894         0.00150         19.30136
|175> *
|176> 
|177>                          ****END OF INPUT****
================================================================================

                       ****************************
                       * Single Point Calculation *
                       ****************************

---------------------------------
CARTESIAN COORDINATES (ANGSTROEM)
---------------------------------
  N      0.000000    0.000000    0.000000
  C      1.461450    0.000000    0.000000
  C      1.947740    0.000000    1.456150
  O      1.184260    0.000000    2.419460
  C      2.044110    1.203360   -0.768780
  H      2.633810    1.850040   -0.107030
  H      1.243870    1.838270   -1.171120
  C      2.906090    0.764540   -1.903970
  N      2.403860    0.093060   -2.994770
  C      3.454530   -0.188630   -3.818700
  H      3.334450   -0.731150   -4.746780
  N      4.585050    0.275100   -3.335390
  C      4.254270    0.884870   -2.154320
  H      5.007490    1.368410   -1.545110
  H      1.431920   -0.176560   -3.133450
  H     -0.463230    0.134310    0.895710
  H      1.770770   -0.957810   -0.438950
  H     -0.340000    0.083810   -0.958010
  H     -0.340000    0.947060   -0.166990
  N      3.260690   -0.000000    1.724060
  C      3.722960    0.000220    3.108300
  C      5.259570    0.000160    3.051150
  O      5.894780   -0.000050    1.998050
  C      3.172210   -1.222200    3.855820
  C      3.497600   -1.230910    5.352140
  C      2.768200   -2.369360    6.071640
  C      3.164120   -2.435970    7.545990
  N      2.433430   -3.502070    8.218760
  H      3.374430    0.857670    3.645160
  H      3.563580   -2.104440    3.393880
  H      2.111680   -1.222130    3.713790
  H      3.213240   -0.290720    5.776500
  H      4.554470   -1.351320    5.468060
  H      3.002580   -3.294540    5.587900
  H      1.714480   -2.209370    5.976900
  H      2.942420   -1.499420    8.013560
  H      4.216730   -2.615020    7.615700
  H      2.755550   -3.578720    9.183520
  H      2.643740   -4.393810    7.770460
  H      1.431370   -3.326350    8.145270
  H      3.969420   -0.428930    1.128980
  N      5.972250    0.000330    4.185910
  C      7.436860    0.000040    4.131430
  C      7.914790    0.000340    5.591790
  O      7.142680    0.000740    6.549290
  C      9.482690    1.084180    3.033920
  C      7.998800    1.220020    3.360100
  O      7.332300    1.431570    2.106610
  H      9.811580    1.914650    2.399010
  H      9.674490    0.165100    2.469070
  H     10.104170    1.081830    3.932350
  H      7.848190    2.133130    3.947770
  H      7.741990   -0.934220    3.644760
  H      6.944710    0.580490    1.812030
  H      5.536940    0.375420    5.024630
  N      9.226100    0.000180    5.867610
  C      9.678890    0.000680    7.251140
  C     11.216610    0.000340    7.247050
  O     11.888280   -0.000250    6.216930
  H      9.911340   -0.091610    5.122510
  H      9.333170    0.926590    7.725160
  C      9.141910   -1.207180    8.010010
  H      8.047330   -1.228730    7.997670
  H      9.497770   -2.142330    7.563310
  H      9.466010   -1.195770    9.056030
  N     11.889700    0.000700    8.405740
  C     13.355320    0.000150    8.401840
  C     13.782560    0.000770    9.877820
  O     12.977870    0.001550   10.808100
  C     15.437990    1.083640    7.375290
  C     13.943750    1.219820    7.650030
  O     13.320950    1.431150    6.374230
  H     15.788750    1.913890    6.751890
  H     15.649010    0.164380    6.817640
  H     16.028100    1.081440    8.294640
  H     13.773120    2.133120    8.231910
  H     13.676900   -0.934290    7.926230
  H     12.943610    0.580050    6.066680
  H     11.425770    0.376090    9.228830
  N     15.083570    0.000450   10.198720
  C     15.489540    0.001260   11.601180
  C     17.029080    0.000630   11.605710
  O     17.699930   -0.000360   10.574570
  C     14.911500   -1.220600   12.330590
  H     15.433350   -2.131490   12.009250
  H     13.860340   -1.352210   12.044540
  C     14.983830   -1.104700   13.853150
  H     14.574110   -0.140220   14.177650
  H     16.026600   -1.135220   14.186230
  C     14.213890   -2.230330   14.536160
  H     14.614710   -3.208620   14.251980
  H     13.156160   -2.191540   14.259930
  N     14.367500   -2.077040   15.982830
  H     15.299230   -1.873180   16.335540
  C     13.372620   -2.207230   16.895960
  N     13.415090   -2.100610   18.196390
  H     13.012990   -2.117610   19.143220
  H     14.303130   -1.879490   18.666440
  N     12.146580   -2.484180   16.723650
  H     11.765520   -2.653720   15.810820
  H     11.560970   -2.533010   17.543270
  H     15.784080   -0.269560    9.512430
  H     15.127960    0.933270   12.051590
  N     17.695670    0.001160   12.768150
  C     19.156240    0.000340   12.772450
  C     19.586360    0.001250   14.256460
  O     18.774900    0.002430   15.182640
  C     19.718460    1.196360   11.991140
  H     18.953580    1.640840   11.341080
  H     20.017370    1.998720   12.677490
  C     20.895610    0.783130   11.108180
  H     21.644260    0.206310   11.661410
  H     20.546990    0.146760   10.286740
  C     21.583980    1.996840   10.557010
  O     22.139340    2.857520   11.220290
  O     21.544070    2.067470    9.216810
  H     17.233320    0.026700   13.674320
  H     19.477180   -0.952240   12.333140
  N     20.887480    0.000770   14.576910
  C     21.292720    0.001850   15.975060
  C     22.825550    0.001080   16.139570
  O     23.628370   -0.000290   15.212310
  H     20.900770    0.898780   16.468240
  C     20.325940   -1.267490   14.164230
  H     19.245560   -1.137050   14.038240
  H     20.758260   -1.589470   13.212240
  C     20.644700   -2.209730   15.315160
  H     21.635490   -2.657450   15.171690
  H     19.915170   -3.018610   15.410490
  C     20.668760   -1.281420   16.529890
  H     21.211470   -1.721200   17.371400
  H     19.639140   -1.082930   16.852600
  N     23.367880    0.001910   17.364920
  C     24.806380    0.000970   17.519310
  C     25.171920    0.002200   19.000280
  O     24.340900    0.003760   19.905130
  H     25.211550   -0.895820   17.038410
  H     25.213890    0.893170   17.035500
  H     22.802340    0.000680   18.209040
  O     26.488940    0.001500   19.301360

----------------------------
CARTESIAN COORDINATES (A.U.)
----------------------------
  NO LB      ZA    FRAG     MASS         X           Y           Z
   0 N     7.0000    0    14.007    0.000000    0.000000    0.000000
   1 C     6.0000    0    12.011    2.761740    0.000000    0.000000
   2 C     6.0000    0    12.011    3.680695    0.000000    2.751725
   3 O     8.0000    0    15.999    2.237927    0.000000    4.572117
   4 C     6.0000    0    12.011    3.862808    2.274021   -1.452784
   5 H     1.0000    0     1.008    4.977180    3.496069   -0.202257
   6 H     1.0000    0     1.008    2.350574    3.473827   -2.213096
   7 C     6.0000    0    12.011    5.491714    1.444771   -3.597982
   8 N     7.0000    0    14.007    4.542637    0.175858   -5.659295
   9 C     6.0000    0    12.011    6.528116   -0.356459   -7.216297
  10 H     1.0000    0     1.008    6.301197   -1.381673   -8.970114
  11 N     7.0000    0    14.007    8.664489    0.519864   -6.302974
  12 C     6.0000    0    12.011    8.039405    1.672162   -4.071075
  13 H     1.0000    0     1.008    9.462785    2.585920   -2.919835
  14 H     1.0000    0     1.008    2.705937   -0.333650   -5.921362
  15 H     1.0000    0     1.008   -0.875378    0.253809    1.692647
  16 H     1.0000    0     1.008    3.346270   -1.809999   -0.829495
  17 H     1.0000    0     1.008   -0.642507    0.158378   -1.810377
  18 H     1.0000    0     1.008   -0.642507    1.789684   -0.315565
  19 N     7.0000    0    14.007    6.161811   -0.000000    3.258001
  20 C     6.0000    0    12.011    7.035375    0.000416    5.873836
  21 C     6.0000    0    12.011    9.939147    0.000302    5.765838
  22 O     8.0000    0    15.999   11.139520   -0.000094    3.775767
  23 C     6.0000    0    12.011    5.994608   -2.309623    7.286444
  24 C     6.0000    0    12.011    6.609506   -2.326083   10.114079
  25 C     6.0000    0    12.011    5.231140   -4.477442   11.473737
  26 C     6.0000    0    12.011    5.979320   -4.603316   14.259855
  27 N     7.0000    0    14.007    4.598516   -6.617953   15.531206
  28 H     1.0000    0     1.008    6.376749    1.620761    6.888354
  29 H     1.0000    0     1.008    6.734190   -3.976815    6.413504
  30 H     1.0000    0     1.008    3.990497   -2.309491    7.018046
  31 H     1.0000    0     1.008    6.072144   -0.549381   10.916003
  32 H     1.0000    0     1.008    8.606701   -2.553625   10.333136
  33 H     1.0000    0     1.008    5.674054   -6.225778   10.559601
  34 H     1.0000    0     1.008    3.239898   -4.175104   11.294704
  35 H     1.0000    0     1.008    5.560368   -2.833493   15.143434
  36 H     1.0000    0     1.008    7.968465   -4.941672   14.391587
  37 H     1.0000    0     1.008    5.207235   -6.762801   17.354338
  38 H     1.0000    0     1.008    4.995945   -8.303098   14.684041
  39 H     1.0000    0     1.008    2.704897   -6.285891   15.392330
  40 H     1.0000    0     1.008    7.501117   -0.810560    2.133463
  41 N     7.0000    0    14.007   11.285917    0.000624    7.910224
  42 C     6.0000    0    12.011   14.053629    0.000076    7.807271
  43 C     6.0000    0    12.011   14.956786    0.000643   10.566952
  44 O     8.0000    0    15.999   13.497709    0.001398   12.376364
  45 C     6.0000    0    12.011   17.919687    2.048803    5.733278
  46 C     6.0000    0    12.011   15.115541    2.305504    6.349669
  47 O     8.0000    0    15.999   13.856039    2.705275    3.980916
  48 H     1.0000    0     1.008   18.541199    3.618164    4.533472
  49 H     1.0000    0     1.008   18.282137    0.311994    4.665866
  50 H     1.0000    0     1.008   19.094114    2.044362    7.431065
  51 H     1.0000    0     1.008   14.830930    4.031032    7.460204
  52 H     1.0000    0     1.008   14.630241   -1.765420    6.887598
  53 H     1.0000    0     1.008   13.123600    1.096967    3.424240
  54 H     1.0000    0     1.008   10.463300    0.709441    9.495175
  55 N     7.0000    0    14.007   17.434802    0.000340   11.088176
  56 C     6.0000    0    12.011   18.290451    0.001285   13.702669
  57 C     6.0000    0    12.011   21.196321    0.000643   13.694940
  58 O     8.0000    0    15.999   22.465593   -0.000472   11.748295
  59 H     1.0000    0     1.008   18.729718   -0.173118    9.680141
  60 H     1.0000    0     1.008   17.637135    1.751001   14.598437
  61 C     6.0000    0    12.011   17.275706   -2.281240   15.136725
  62 H     1.0000    0     1.008   15.207250   -2.321963   15.113406
  63 H     1.0000    0     1.008   17.948184   -4.048417   14.292585
  64 H     1.0000    0     1.008   17.888166   -2.259678   17.113417
  65 N     7.0000    0    14.007   22.468277    0.001323   15.884547
  66 C     6.0000    0    12.011   25.237897    0.000283   15.877177
  67 C     6.0000    0    12.011   26.045264    0.001455   18.666375
  68 O     8.0000    0    15.999   24.524620    0.002929   20.424349
  69 C     6.0000    0    12.011   29.173573    2.047783   13.937278
  70 C     6.0000    0    12.011   26.349869    2.305126   14.456462
  71 O     8.0000    0    15.999   25.172947    2.704482   12.045549
  72 H     1.0000    0     1.008   29.836413    3.616728   12.759223
  73 H     1.0000    0     1.008   29.572343    0.310633   12.883472
  74 H     1.0000    0     1.008   30.288719    2.043625   15.674598
  75 H     1.0000    0     1.008   26.027425    4.031013   15.556055
  76 H     1.0000    0     1.008   25.845595   -1.765552   14.978404
  77 H     1.0000    0     1.008   24.459878    1.096136   11.464364
  78 H     1.0000    0     1.008   21.591576    0.710707   17.439961
  79 N     7.0000    0    14.007   28.503816    0.000850   19.272788
  80 C     6.0000    0    12.011   29.270989    0.002381   21.923053
  81 C     6.0000    0    12.011   32.180298    0.001191   21.931613
  82 O     8.0000    0    15.999   33.448020   -0.000680   19.983041
  83 C     6.0000    0    12.011   28.178651   -2.306600   23.301438
  84 H     1.0000    0     1.008   29.164805   -4.027932   22.694194
  85 H     1.0000    0     1.008   26.192247   -2.555307   22.760882
  86 C     6.0000    0    12.011   28.315335   -2.087580   26.178660
  87 H     1.0000    0     1.008   27.541077   -0.264977   26.791876
  88 H     1.0000    0     1.008   30.285885   -2.145255   26.808090
  89 C     6.0000    0    12.011   26.860359   -4.214713   27.469361
  90 H     1.0000    0     1.008   27.617799   -6.063413   26.932339
  91 H     1.0000    0     1.008   24.861539   -4.141410   26.947362
  92 N     7.0000    0    14.007   27.150640   -3.925037   30.203172
  93 H     1.0000    0     1.008   28.911355   -3.539797   30.869697
  94 C     6.0000    0    12.011   25.270589   -4.171060   31.928737
  95 N     7.0000    0    14.007   25.350846   -3.969578   34.386194
  96 H     1.0000    0     1.008   24.590987   -4.001703   36.175443
  97 H     1.0000    0     1.008   27.028999   -3.551721   35.274459
  98 N     7.0000    0    14.007   22.953710   -4.694420   31.603118
  99 H     1.0000    0     1.008   22.233611   -5.014804   29.878120
 100 H     1.0000    0     1.008   21.847067   -4.786695   33.151976
 101 H     1.0000    0     1.008   29.827588   -0.509395   17.975888
 102 H     1.0000    0     1.008   28.587701    1.763625   22.774205
 103 N     7.0000    0    14.007   33.439970    0.002192   24.128307
 104 C     6.0000    0    12.011   36.200047    0.000643   24.136433
 105 C     6.0000    0    12.011   37.012856    0.002362   26.940805
 106 O     8.0000    0    15.999   35.479419    0.004592   28.691032
 107 C     6.0000    0    12.011   37.262489    2.260793   22.659971
 108 H     1.0000    0     1.008   35.817075    3.100738   21.431535
 109 H     1.0000    0     1.008   37.827347    3.777033   23.956984
 110 C     6.0000    0    12.011   39.486980    1.479901   20.991418
 111 H     1.0000    0     1.008   40.901724    0.389869   22.036871
 112 H     1.0000    0     1.008   38.828184    0.277336   19.439121
 113 C     6.0000    0    12.011   40.787811    3.773481   19.949858
 114 O     8.0000    0    15.999   41.837289    5.399930   21.203275
 115 O     8.0000    0    15.999   40.712392    3.906952   17.417247
 116 H     1.0000    0     1.008   32.566255    0.050456   25.840720
 117 H     1.0000    0     1.008   36.806536   -1.799473   23.306257
 118 N     7.0000    0    14.007   39.471617    0.001455   27.546368
 119 C     6.0000    0    12.011   40.237409    0.003496   30.188488
 120 C     6.0000    0    12.011   43.134038    0.002041   30.499367
 121 O     8.0000    0    15.999   44.651148   -0.000548   28.747100
 122 H     1.0000    0     1.008   39.496731    1.698448   31.120464
 123 C     6.0000    0    12.011   38.410460   -2.395209   26.766516
 124 H     1.0000    0     1.008   36.368838   -2.148713   26.528429
 125 H     1.0000    0     1.008   39.227426   -3.003663   24.967515
 126 C     6.0000    0    12.011   39.012829   -4.175785   28.941458
 127 H     1.0000    0     1.008   40.885151   -5.021853   28.670339
 128 H     1.0000    0     1.008   37.634217   -5.704346   29.121606
 129 C     6.0000    0    12.011   39.058296   -2.421533   31.236965
 130 H     1.0000    0     1.008   40.083869   -3.252597   32.827189
 131 H     1.0000    0     1.008   37.112596   -2.046441   31.846799
 132 N     7.0000    0    14.007   44.158894    0.003609   32.814943
 133 C     6.0000    0    12.011   46.877265    0.001833   33.106698
 134 C     6.0000    0    12.011   47.568035    0.004157   35.905326
 135 O     8.0000    0    15.999   45.997635    0.007105   37.615244
 136 H     1.0000    0     1.008   47.642925   -1.692854   32.197929
 137 H     1.0000    0     1.008   47.647347    1.687847   32.192430
 138 H     1.0000    0     1.008   43.090178    0.001285   34.410099
 139 O     8.0000    0    15.999   50.056842    0.002835   36.474284

--------------------------------
INTERNAL COORDINATES (ANGSTROEM)
--------------------------------
 N      0   0   0     0.000000000000     0.00000000     0.00000000
 C      1   0   0     1.461450000000     0.00000000     0.00000000
 C      2   1   0     1.535203825751   108.46705034     0.00000000
 O      3   2   1     1.229173651890   123.13404915     0.00000000
 C      2   1   3     1.542268022621   112.19712055   237.42706994
 H      5   2   1     1.097202886845   111.24028393   117.65762040
 H      5   2   1     1.097894458179   111.00952425     0.15449122
 C      5   2   1     1.491384876181   111.60442919   239.34855475
 N      8   5   2     1.375850647163   122.41774934    65.86697841
 C      9   8   5     1.364594207045   107.36071879   181.64955907
 H     10   9   8     1.081702197095   122.41863490   178.92627196
 N     10   9   8     1.314043203019   111.56098054   359.06026605
 C     12  10   9     1.369730340688   105.45507388   359.80727685
 H     13  12  10     1.082722551765   121.06297386   180.67549538
 H      9   8   5     1.018132825519   125.85277034   359.16782239
 H      1   2   3     1.017309005711   117.08735136     8.52785658
 H      2   1   3     1.098069196818   106.36136092   114.62127838
 H      1   2   3     1.020003566758   109.47114980   175.00029763
 H      1   2   3     1.020004070433   109.47113980    99.99986914
 N      3   2   1     1.340005026334   120.00003797   180.00000000
 C     20   3   2     1.459388220762   119.99984300   179.99002660
 C     21  20   3     1.537672402757   106.33687736   180.00012519
 O     22  21  20     1.229842021643   123.22756288     0.00000000
 C     21  20   3     1.535064288328   110.37251818    58.16474413
 C     24  21  20     1.531315793231   113.83641549   185.56113205
 C     25  24  21     1.531591659843   111.22731394   172.43834735
 C     26  25  24     1.528037126840   111.23998461   176.22998273
 N     27  26  25     1.457084952568   110.33214227   178.51601344
 H     21  20   3     1.070005758396   111.89115294   300.28598399
 H     24  21  20     1.070003017799   108.36877217    63.03250473
 H     24  21  20     1.069998320887   106.91268749   307.10887181
 H     25  24  21     1.069999652009   109.03016550    51.09911614
 H     25  24  21     1.070004771672   108.44427868   293.05895874
 H     26  25  24     1.069998319812   109.02670713    54.77055458
 H     26  25  24     1.069999208458   108.43652136   297.70502867
 H     27  26  25     1.069999297850   109.25590231    58.01274856
 H     27  26  25     1.070002896585   108.96840825   299.29206507
 H     28  27  26     1.019999203186   109.47121207   175.98163024
 H     28  27  26     1.020001673381   109.47122523    59.52586174
 H     28  27  26     1.020001246127   109.47157936   300.40222005
 H     20   3   2     1.019999688333   124.34411385   329.38206212
 N     22  21  20     1.339997413766   120.00067908   179.99997172
 C     42  22  21     1.465622941483   120.00037073   179.98949072
 C     43  42  22     1.536576878812   105.99136046   180.00005327
 O     44  43  42     1.230024496545   122.99630219     0.00000000
 C     43  42  22     2.562285723451   144.46156913    46.75207996
 C     46  43  42     1.525377143562    33.83582353    19.97106284
 O     47  46  43     1.435344151275   106.14691251   236.31113103
 H     46  43  42     1.095883096457   143.94196113    10.36704042
 H     46  43  42     1.095696494884    90.32464171   250.95698713
 H     46  43  42     1.092437356465    95.79976145   142.00245434
 H     47  46  43     1.096270620376   108.81124279   122.21172559
 H     43  42  22     1.096719541815   107.13906661   296.96596978
 H     48  47  46     0.980479755477   108.54228326    99.77212403
 H     42  22  21     1.016680157473   118.09477857   335.28914507
 N     44  43  42     1.340003960479   120.00004125   180.00064110
 C     56  44  43     1.455738401980   120.00019018   179.99019318
 C     57  56  44     1.537725476833   107.96939899   179.99956092
 O     58  57  56     1.229751255905   123.25798590     0.00000000
 H     56  44  43     1.016441474803   120.58684148   353.99945086
 H     57  56  44     1.096141691069   108.25117936   297.22989071
 C     57  56  44     1.524190597301   111.30516079    58.30982765
 H     62  57  56     1.094861659983   111.23540987   301.46437588
 H     62  57  56     1.095756702968   111.03410331    61.33460032
 H     62  57  56     1.095138730253   111.28663755   181.15343914
 N     58  57  56     1.340004773797   120.00016216   179.99970886
 C     66  58  57     1.465625292119   120.00008869   179.98980084
 C     67  66  58     1.536571300786   105.99124204   179.99997688
 O     68  67  66     1.230019301840   122.99656236     0.00000000
 C     67  66  58     2.562278246307   144.46139659    46.75153072
 C     70  67  66     1.525378719401    33.83591024    19.97124734
 O     71  70  67     1.435341718512   106.14670637   236.31030069
 H     70  67  66     1.095890140525   143.94228548    10.36860451
 H     70  67  66     1.095692434262    90.32513953   250.95751634
 H     70  67  66     1.092446371498    95.79979590   142.00252560
 H     71  70  67     1.096273606952   108.81078361   122.21132362
 H     67  66  58     1.096720877024   107.13908146   296.96654100
 H     72  71  70     0.980481355305   108.54146145    99.77205153
 H     66  58  57     1.016673912865   118.09487982   335.28936956
 N     68  67  66     1.340001467350   119.99940226   179.99984565
 C     80  68  67     1.460036420299   119.99982117   179.98999084
 C     81  80  68     1.539546793508   106.31271160   180.00041885
 O     82  81  80     1.230158689845   122.87906842     0.00000000
 C     81  80  68     1.535939793514   110.55352339    58.22432725
 H     84  81  80     1.097864932585   110.00753160    72.15865202
 H     84  81  80     1.097307222340   109.39820297   315.82490262
 C     84  81  80     1.528677007252   113.25813101   194.91069408
 H     87  84  81     1.096992433338   110.09708115    50.04612566
 H     87  84  81     1.095099552415   110.23548497   292.38790462
 C     87  84  81     1.525238722496   111.47993226   171.32093945
 H     90  87  84     1.094744841915   111.00380610    59.55233239
 H     90  87  84     1.093892330122   110.41772061   298.96415201
 N     90  87  84     1.462856091726   108.21050521   178.10946286
 H     93  90  87     1.016899226374   117.40195227   315.25498623
 C     93  90  87     1.356665783235   125.34944190   136.45617187
 N     95  93  90     1.305484473366   129.70011127   179.37097136
 H     96  95  93     1.028815075171   154.51310412   181.00945661
 H     96  95  93     1.028812956032   120.04968131     0.49988264
 N     95  93  90     1.268686769932   129.65849745     0.43814721
 H     99  95  93     1.003598098892   121.82601760     0.41301797
 H     99  95  93     1.008513949036   117.47345246   180.15414232
 H     80  68  67     1.017159586446   120.47336740   342.10427950
 H     81  80  68     1.096472482372   107.65953929   296.92523579
 N     82  81  80     1.340003456190   120.00027181   180.00027736
 C    104  82  81     1.460576559890   120.00035813   179.98992971
 C    105 104  82     1.545085668369   106.33216428   180.00014950
 O    106 105 104     1.231372452347   122.61372611     0.00000000
 C    105 104  82     1.535252580164   111.36263753    56.84129665
 H    108 105 104     1.097807764775   111.19956431   343.02196840
 H    108 105 104     1.097362784224   110.55211558    99.63420169
 C    108 105 104     1.528417324228   111.43319509   222.85339484
 H    111 108 105     1.095108016499   112.15303794   310.06142761
 H    111 108 105     1.096022971885   110.17999319    68.97618997
 C    111 108 105     1.500244510038   110.29763102   190.47789911
 O    114 111 108     1.220301253953   125.43110137    62.29619022
 O    114 111 108     1.342653136517   113.30554549   242.15902013
 H    104  82  81     1.017626593108   123.12541449   358.33764557
 H    105 104  82     1.096997910709   106.96990138   294.85377111
 N    106 105 104     1.340000629589   119.99937426   180.00022703
 C    119 106 105     1.455693665061   119.99956939   179.98988076
 C    120 119 106     1.541632881687   112.28946260   179.99988726
 O    121 120 119     1.226512509883   124.76017809     0.00000000
 H    120 119 106     1.096054168278   109.46492774   299.85918754
 C    119 106 105     1.447105863992    63.59791299   281.91212107
 H    124 119 106     1.095494873607   108.12752646   354.13463779
 H    124 119 106     1.094009443698   110.65566182   113.37858796
 C    124 119 106     1.521204792295   104.22784266   235.32824323
 H    127 124 119     1.096677556714   110.07229674   272.50708844
 H    127 124 119     1.093429780187   112.60455535   151.69995796
 C    127 124 119     1.529021684804   103.19782092    29.56207671
 H    130 127 124     1.093654274714   112.02172415   199.72315481
 H    130 127 124     1.097113197715   109.19334784    79.90099841
 N    121 120 119     1.340001918021   119.99954760   180.00017091
 C    133 121 120     1.446761696237   119.99969243   179.99005897
 C    134 133 121     1.525415728711   109.99078284   179.99976726
 O    135 134 133     1.228556142999   123.57057551     0.00000000
 H    134 133 121     1.095289844288   108.75280196   300.24242476
 H    134 133 121     1.093689789748   108.82851062    59.61716051
 H    133 121 120     1.016058846180   122.30499234     0.15803544
 O    135 134 133     1.350996423681   116.74178613   179.99989953

---------------------------
INTERNAL COORDINATES (A.U.)
---------------------------
 N      0   0   0     0.000000000000     0.00000000     0.00000000
 C      1   0   0     2.761740258419     0.00000000     0.00000000
 C      2   1   0     2.901114790417   108.46705034     0.00000000
 O      3   2   1     2.322801573103   123.13404915     0.00000000
 C      2   1   3     2.914464187858   112.19712055   237.42706994
 H      5   2   1     2.073412969484   111.24028393   117.65762040
 H      5   2   1     2.074719849908   111.00952425     0.15449122
 C      5   2   1     2.818308976253   111.60442919   239.34855475
 N      8   5   2     2.599980924317   122.41774934    65.86697841
 C      9   8   5     2.578709335250   107.36071879   181.64955907
 H     10   9   8     2.044120910970   122.41863490   178.92627196
 N     10   9   8     2.483181781846   111.56098054   359.06026605
 C     12  10   9     2.588415221222   105.45507388   359.80727685
 H     13  12  10     2.046049101856   121.06297386   180.67549538
 H      9   8   5     1.923992208187   125.85277034   359.16782239
 H      1   2   3     1.922435414365   117.08735136     8.52785658
 H      2   1   3     2.075050058080   106.36136092   114.62127838
 H      1   2   3     1.927527396796   109.47114980   175.00029763
 H      1   2   3     1.927528348603   109.47113980    99.99986914
 N      3   2   1     2.532242517849   120.00003797   180.00000000
 C     20   3   2     2.757844060312   119.99984300   179.99002660
 C     21  20   3     2.905779724899   106.33687736   180.00012519
 O     22  21  20     2.324064608894   123.22756288     0.00000000
 C     21  20   3     2.900851102903   110.37251818    58.16474413
 C     24  21  20     2.893767473756   113.83641549   185.56113205
 C     25  24  21     2.894288786101   111.22731394   172.43834735
 C     26  25  24     2.887571692191   111.23998461   176.22998273
 N     27  26  25     2.753491514211   110.33214227   178.51601344
 H     21  20   3     2.022017845087   111.89115294   300.28598399
 H     24  21  20     2.022012666110   108.36877217    63.03250473
 H     24  21  20     2.022003790231   106.91268749   307.10887181
 H     25  24  21     2.022006305689   109.03016550    51.09911614
 H     25  24  21     2.022015980448   108.44427868   293.05895874
 H     26  25  24     2.022003788200   109.02670713    54.77055458
 H     26  25  24     2.022005467497   108.43652136   297.70502867
 H     27  26  25     2.022005636425   109.25590231    58.01274856
 H     27  26  25     2.022012437048   108.96840825   299.29206507
 H     28  27  26     1.927519150839   109.47121207   175.98163024
 H     28  27  26     1.927523818831   109.47122523    59.52586174
 H     28  27  26     1.927523011438   109.47157936   300.40222005
 H     20   3   2     1.927520067635   124.34411385   329.38206212
 N     22  21  20     2.532228132181   120.00067908   179.99997172
 C     42  22  21     2.769625974994   120.00037073   179.98949072
 C     43  42  22     2.903709484670   105.99136046   180.00005327
 O     44  43  42     2.324409436484   122.99630219     0.00000000
 C     43  42  22     4.842018294178   144.46156913    46.75207996
 C     46  43  42     2.882545052274    33.83582353    19.97106284
 O     47  46  43     2.712407353836   106.14691251   236.31113103
 H     46  43  42     2.070918927097   143.94196113    10.36704042
 H     46  43  42     2.070566301227    90.32464171   250.95698713
 H     46  43  42     2.064407422184    95.79976145   142.00245434
 H     47  46  43     2.071651241175   108.81124279   122.21172559
 H     43  42  22     2.072499579751   107.13906661   296.96596978
 H     48  47  46     1.852838217705   108.54228326    99.77212403
 H     42  22  21     1.921247063417   118.09477857   335.28914507
 N     44  43  42     2.532240503676   120.00004125   180.00064110
 C     56  44  43     2.750946902375   120.00019018   179.99019318
 C     57  56  44     2.905880020367   107.96939899   179.99956092
 O     58  57  56     2.323893086506   123.25798590     0.00000000
 H     56  44  43     1.920796018537   120.58684148   353.99945086
 H     57  56  44     2.071407600094   108.25117936   297.22989071
 C     57  56  44     2.880302804796   111.30516079    58.30982765
 H     62  57  56     2.068988691898   111.23540987   301.46437588
 H     62  57  56     2.070680078019   111.03410331    61.33460032
 H     62  57  56     2.069512278828   111.28663755   181.15343914
 N     58  57  56     2.532242040624   120.00016216   179.99970886
 C     66  58  57     2.769630417054   120.00008869   179.98980084
 C     67  66  58     2.903698943729   105.99124204   179.99997688
 O     68  67  66     2.324399619915   122.99656236     0.00000000
 C     67  66  58     4.842004164425   144.46139659    46.75153072
 C     70  67  66     2.882548030179    33.83591024    19.97124734
 O     71  70  67     2.712402756579   106.14670637   236.31030069
 H     70  67  66     2.070932238457   143.94228548    10.36860451
 H     70  67  66     2.070558627766    90.32513953   250.95751634
 H     70  67  66     2.064424458128    95.79979590   142.00252560
 H     71  70  67     2.071656884986   108.81078361   122.21132362
 H     67  66  58     2.072502102929   107.13908146   296.96654100
 H     72  71  70     1.852841240942   108.54146145    99.77205153
 H     66  58  57     1.921235262817   118.09487982   335.28936956
 N     68  67  66     2.532235792344   119.99940226   179.99984565
 C     80  68  67     2.759068979916   119.99982117   179.98999084
 C     81  80  68     2.909321810086   106.31271160   180.00041885
 O     82  81  80     2.324663025070   122.87906842     0.00000000
 C     81  80  68     2.902505567933   110.55352339    58.22432725
 H     84  81  80     2.074664054622   110.00753160    72.15865202
 H     84  81  80     2.073610134997   109.39820297   315.82490262
 C     84  81  80     2.888780890928   113.25813101   194.91069408
 H     87  84  81     2.073015269992   110.09708115    50.04612566
 H     87  84  81     2.069438243444   110.23548497   292.38790462
 C     87  84  81     2.882283474369   111.47993226   171.32093945
 H     90  87  84     2.068767937743   111.00380610    59.55233239
 H     90  87  84     2.067156923928   110.41772061   298.96415201
 N     90  87  84     2.764397386701   108.21050521   178.10946286
 H     93  90  87     1.921661043643   117.40195227   315.25498623
 C     93  90  87     2.563726785575   125.34944190   136.45617187
 N     95  93  90     2.467008126748   129.70011127   179.37097136
 H     96  95  93     1.944178734524   154.51310412   181.00945661
 H     96  95  93     1.944174729931   120.04968131     0.49988264
 N     95  93  90     2.397470544900   129.65849745     0.43814721
 H     99  95  93     1.896525555430   121.82601760     0.41301797
 H     99  95  93     1.905815165917   117.47345246   180.15414232
 H     80  68  67     1.922153052876   120.47336740   342.10427950
 H     81  80  68     2.072032705065   107.65953929   296.92523579
 N     82  81  80     2.532239550706   120.00027181   180.00027736
 C    104  82  81     2.760089695817   120.00035813   179.98992971
 C    105 104  82     2.919788766665   106.33216428   180.00014950
 O    106 105 104     2.326956703792   122.61372611     0.00000000
 C    105 104  82     2.901206922906   111.36263753    56.84129665
 H    108 105 104     2.074556023117   111.19956431   343.02196840
 H    108 105 104     2.073715131741   110.55211558    99.63420169
 C    108 105 104     2.888290161131   111.43319509   222.85339484
 H    111 108 105     2.069454238244   112.15303794   310.06142761
 H    111 108 105     2.071183253349   110.17999319    68.97618997
 C    111 108 105     2.835051257891   110.29763102   190.47789911
 O    114 111 108     2.306035170852   125.43110137    62.29619022
 O    114 111 108     2.537246720868   113.30554549   242.15902013
 H    104  82  81     1.923035567569   123.12541449   358.33764557
 H    105 104  82     2.073025620724   106.96990138   294.85377111
 N    106 105 104     2.532234209206   119.99937426   180.00022703
 C    119 106 105     2.750862361850   119.99956939   179.98988076
 C    120 119 106     2.913263945437   112.28946260   179.99988726
 O    121 120 119     2.317772743508   124.76017809     0.00000000
 H    120 119 106     2.071242205989   109.46492774   299.85918754
 C    119 106 105     2.734633769736    63.59791299   281.91212107
 H    124 119 106     2.070185292233   108.12752646   354.13463779
 H    124 119 106     2.067378236512   110.65566182   113.37858796
 C    124 119 106     2.874660451045   104.22784266   235.32824323
 H    127 124 119     2.072420239407   110.07229674   272.50708844
 H    127 124 119     2.066282831227   112.60455535   151.69995796
 C    127 124 119     2.889432237106   103.19782092    29.56207671
 H    130 127 124     2.066707064402   112.02172415   199.72315481
 H    130 127 124     2.073243481592   109.19334784    79.90099841
 N    121 120 119     2.532236643989   119.99954760   180.00017091
 C    133 121 120     2.733983386936   119.99969243   179.99005897
 C    134 133 121     2.882617967640   109.99078284   179.99976726
 O    135 134 133     2.321634650414   123.57057551     0.00000000
 H    134 133 121     2.069797842969   108.75280196   300.24242476
 H    134 133 121     2.066774178090   108.82851062    59.61716051
 H    133 121 120     1.920072955228   122.30499234     0.15803544
 O    135 134 133     2.553013248665   116.74178613   179.99989953

---------------------
BASIS SET INFORMATION
---------------------
There are 4 groups of distinct atoms

 Group   1 Type N   : 6s3p contracted to 2s1p pattern {33/3}
 Group   2 Type C   : 6s3p contracted to 2s1p pattern {33/3}
 Group   3 Type O   : 6s3p contracted to 2s1p pattern {33/3}
 Group   4 Type H   : 3s contracted to 1s pattern {3}

Atom   0N    basis set group =>   1
Atom   1C    basis set group =>   2
Atom   2C    basis set group =>   2
Atom   3O    basis set group =>   3
Atom   4C    basis set group =>   2
Atom   5H    basis set group =>   4
Atom   6H    basis set group =>   4
Atom   7C    basis set group =>   2
Atom   8N    basis set group =>   1
Atom   9C    basis set group =>   2
Atom  10H    basis set group =>   4
Atom  11N    basis set group =>   1
Atom  12C    basis set group =>   2
Atom  13H    basis set group =>   4
Atom  14H    basis set group =>   4
Atom  15H    basis set group =>   4
Atom  16H    basis set group =>   4
Atom  17H    basis set group =>   4
Atom  18H    basis set group =>   4
Atom  19N    basis set group =>   1
Atom  20C    basis set group =>   2
Atom  21C    basis set group =>   2
Atom  22O    basis set group =>   3
Atom  23C    basis set group =>   2
Atom  24C    basis set group =>   2
Atom  25C    basis set group =>   2
Atom  26C    basis set group =>   2
Atom  27N    basis set group =>   1
Atom  28H    basis set group =>   4
Atom  29H    basis set group =>   4
Atom  30H    basis set group =>   4
Atom  31H    basis set group =>   4
Atom  32H    basis set group =>   4
Atom  33H    basis set group =>   4
Atom  34H    basis set group =>   4
Atom  35H    basis set group =>   4
Atom  36H    basis set group =>   4
Atom  37H    basis set group =>   4
Atom  38H    basis set group =>   4
Atom  39H    basis set group =>   4
Atom  40H    basis set group =>   4
Atom  41N    basis set group =>   1
Atom  42C    basis set group =>   2
Atom  43C    basis set group =>   2
Atom  44O    basis set group =>   3
Atom  45C    basis set group =>   2
Atom  46C    basis set group =>   2
Atom  47O    basis set group =>   3
Atom  48H    basis set group =>   4
Atom  49H    basis set group =>   4
Atom  50H    basis set group =>   4
Atom  51H    basis set group =>   4
Atom  52H    basis set group =>   4
Atom  53H    basis set group =>   4
Atom  54H    basis set group =>   4
Atom  55N    basis set group =>   1
Atom  56C    basis set group =>   2
Atom  57C    basis set group =>   2
Atom  58O    basis set group =>   3
Atom  59H    basis set group =>   4
Atom  60H    basis set group =>   4
Atom  61C    basis set group =>   2
Atom  62H    basis set group =>   4
Atom  63H    basis set group =>   4
Atom  64H    basis set group =>   4
Atom  65N    basis set group =>   1
Atom  66C    basis set group =>   2
Atom  67C    basis set group =>   2
Atom  68O    basis set group =>   3
Atom  69C    basis set group =>   2
Atom  70C    basis set group =>   2
Atom  71O    basis set group =>   3
Atom  72H    basis set group =>   4
Atom  73H    basis set group =>   4
Atom  74H    basis set group =>   4
Atom  75H    basis set group =>   4
Atom  76H    basis set group =>   4
Atom  77H    basis set group =>   4
Atom  78H    basis set group =>   4
Atom  79N    basis set group =>   1
Atom  80C    basis set group =>   2
Atom  81C    basis set group =>   2
Atom  82O    basis set group =>   3
Atom  83C    basis set group =>   2
Atom  84H    basis set group =>   4
Atom  85H    basis set group =>   4
Atom  86C    basis set group =>   2
Atom  87H    basis set group =>   4
Atom  88H    basis set group =>   4
Atom  89C    basis set group =>   2
Atom  90H    basis set group =>   4
Atom  91H    basis set group =>   4
Atom  92N    basis set group =>   1
Atom  93H    basis set group =>   4
Atom  94C    basis set group =>   2
Atom  95N    basis set group =>   1
Atom  96H    basis set group =>   4
Atom  97H    basis set group =>   4
Atom  98N    basis set group =>   1
Atom  99H    basis set group =>   4
Atom 100H    basis set group =>   4
Atom 101H    basis set group =>   4
Atom 102H    basis set group =>   4
Atom 103N    basis set group =>   1
Atom 104C    basis set group =>   2
Atom 105C    basis set group =>   2
Atom 106O    basis set group =>   3
Atom 107C    basis set group =>   2
Atom 108H    basis set group =>   4
Atom 109H    basis set group =>   4
Atom 110C    basis set group =>   2
Atom 111H    basis set group =>   4
Atom 112H    basis set group =>   4
Atom 113C    basis set group =>   2
Atom 114O    basis set group =>   3
Atom 115O    basis set group =>   3
Atom 116H    basis set group =>   4
Atom 117H    basis set group =>   4
Atom 118N    basis set group =>   1
Atom 119C    basis set group =>   2
Atom 120C    basis set group =>   2
Atom 121O    basis set group =>   3
Atom 122H    basis set group =>   4
Atom 123C    basis set group =>   2
Atom 124H    basis set group =>   4
Atom 125H    basis set group =>   4
Atom 126C    basis set group =>   2
Atom 127H    basis set group =>   4
Atom 128H    basis set group =>   4
Atom 129C    basis set group =>   2
Atom 130H    basis set group =>   4
Atom 131H    basis set group =>   4
Atom 132N    basis set group =>   1
Atom 133C    basis set group =>   2
Atom 134C    basis set group =>   2
Atom 135O    basis set group =>   3
Atom 136H    basis set group =>   4
Atom 137H    basis set group =>   4
Atom 138H    basis set group =>   4
Atom 139O    basis set group =>   3
--------------------------------------------------------------------------
WARNING: No preset parameters were found for the device that Open MPI
detected:

  Local host:            c0703a-s21
  Device name:           mlx5_0
  Device vendor ID:      0x02c9
  Device vendor part ID: 4123

Default device parameters will be used, which may result in lower
performance.  You can edit any of the files specified by the
btl_openib_device_param_files MCA parameter to set values for your
device.

NOTE: You can turn off this warning by setting the MCA parameter
      btl_openib_warn_no_device_params_found to 0.
--------------------------------------------------------------------------
--------------------------------------------------------------------------
WARNING: There was an error initializing an OpenFabrics device.

  Local host:   c0703a-s21
  Local device: mlx5_0
--------------------------------------------------------------------------


           ************************************************************
           *        Program running with 15 parallel MPI-processes    *
           *              working on a common directory               *
           ************************************************************
------------------------------------------------------------------------------
                           ORCA GTO INTEGRAL CALCULATION
------------------------------------------------------------------------------

                         BASIS SET STATISTICS AND STARTUP INFO

 # of primitive gaussian shells          ...  840
 # of primitive gaussian functions       ... 1260
 # of contracted shells                  ...  280
 # of contracted basis functions         ...  420
 Highest angular momentum                ...    1
 Maximum contraction depth               ...    3
 Integral package used                   ... LIBINT
 Integral threshhold            Thresh   ...  1.000e-10
 Primitive cut-off              TCut     ...  1.000e-11


------------------------------ INTEGRAL EVALUATION ----------------------------


 * One electron integrals 
 Pre-screening matrix                    ... done
 Shell pair data                         ... done (   0.006 sec)

[c0703a-s21.ufhpc:83214] 14 more processes have sent help message help-mpi-btl-openib.txt / no device params found
[c0703a-s21.ufhpc:83214] Set MCA parameter "orte_base_help_aggregate" to 0 to see all help / error messages
[c0703a-s21.ufhpc:83214] 14 more processes have sent help message help-mpi-btl-openib.txt / error in device init
--------------------------------------------------------------------------
WARNING: No preset parameters were found for the device that Open MPI
detected:

  Local host:            c0703a-s21
  Device name:           mlx5_0
  Device vendor ID:      0x02c9
  Device vendor part ID: 4123

Default device parameters will be used, which may result in lower
performance.  You can edit any of the files specified by the
btl_openib_device_param_files MCA parameter to set values for your
device.

NOTE: You can turn off this warning by setting the MCA parameter
      btl_openib_warn_no_device_params_found to 0.
--------------------------------------------------------------------------
--------------------------------------------------------------------------
WARNING: There was an error initializing an OpenFabrics device.

  Local host:   c0703a-s21
  Local device: mlx5_0
--------------------------------------------------------------------------


           ************************************************************
           *        Program running with 15 parallel MPI-processes    *
           *              working on a common directory               *
           ************************************************************
-------------------------------------------------------------------------------
                                 ORCA SCF
-------------------------------------------------------------------------------

------------
SCF SETTINGS
------------
Hamiltonian:
 Ab initio Hamiltonian  Method          .... Hartree-Fock(GTOs)


General Settings:
 Integral files         IntName         .... HKTATREPG
 Hartree-Fock type      HFTyp           .... UHF
 Total Charge           Charge          ....    0
 Multiplicity           Mult            ....    2
 Number of Electrons    NEL             ....  533
 Basis Dimension        Dim             ....  420
 Nuclear Repulsion      ENuc            ....  10335.6092272606 Eh

Convergence Acceleration:
 DIIS                   CNVDIIS         .... off
 Newton-Raphson         CNVNR           .... off
 SOSCF                  CNVSOSCF        .... off
 Level Shifting         CNVShift        .... off
 Zerner damping         CNVZerner       .... off
 Static damping         CNVDamp         .... off
 Fernandez-Rico         CNVRico         .... off

SCF Procedure:
 Maximum # iterations   MaxIter         .... 10000
 SCF integral mode      SCFMode         .... Direct
   Integral package                     .... LIBINT
 Reset frequency        DirectResetFreq ....    20
 Integral Threshold     Thresh          ....  1.000e-10 Eh
 Primitive CutOff       TCut            ....  1.000e-11 Eh

Convergence Tolerance:
 Convergence Check Mode ConvCheckMode   .... All-Criteria
 Convergence forced     ConvForced      .... 0
 Energy Change          TolE            ....  1.000e-06 Eh
 Max Density Change     TolMaxP         ....  1.000e-05
 RMS Density Change     TolRMSP         ....  1.000e-06


Diagonalization of the overlap matrix:
Smallest eigenvalue                        ... 1.807e-01
Time for diagonalization                   ...    0.056 sec
Threshold for overlap eigenvalues          ... 1.000e-08
Number of eigenvalues below threshold      ... 0
Time for construction of square roots      ...    0.061 sec
Total time needed                          ...    0.118 sec

--------------------------------
INITIAL GUESS: MINIMAL BASIS EHT
--------------------------------
The minimal basis has 420 functions
EHT matrix was diagonalized
Basis set overlap was calculated now projecting the orbitals
Using GuessMode=FMatrix for the initial guess
C*T matrix was formed
Effective Fockian was calculated
Effective Fockian was diagonalized
Initial density was built
                      ------------------
                      INITIAL GUESS DONE
                      ------------------

--------------------
CPCM SOLVATION MODEL
--------------------
CPCM parameters:
  Epsilon                                         ...      78.3550
  Refrac                                          ...       1.3300
  Rsolv                                           ...       1.3000
  Surface type                                    ...    GEPOL SES
  Epsilon function type                           ...         CPCM
Solvent:                                     ... WATER
SMD-CDS solvent descriptors:
  Soln                                       ...    1.3328
  Soln25                                     ...    1.3323
  Sola                                       ...    0.0000
  Solb                                       ...    0.0000
  Solg                                       ...    0.0000
  Solc                                       ...    0.0000
  Solh                                       ...    0.0000
Radii:
 Radius for N  used is    3.5716 Bohr (=   1.8900 Ang.)
 Radius for C  used is    3.4960 Bohr (=   1.8500 Ang.)
 Radius for O  used is    2.8724 Bohr (=   1.5200 Ang.)
 Radius for H  used is    2.2677 Bohr (=   1.2000 Ang.)
Calculating surface                               ...        done! (  0.7s)
GEPOL surface points                              ...         6575
GEPOL Volume                                      ...    6766.2963
GEPOL Surface-area                                ...    3465.7884
Calculating surface distance matrix               ...        done! (  0.4s)
Performing Cholesky decomposition & store         ...        [c0703a-s21.ufhpc:83729] 14 more processes have sent help message help-mpi-btl-openib.txt / no device params found
[c0703a-s21.ufhpc:83729] Set MCA parameter "orte_base_help_aggregate" to 0 to see all help / error messages
[c0703a-s21.ufhpc:83729] 14 more processes have sent help message help-mpi-btl-openib.txt / error in device init
done! (  3.9s)
Overall time for CPCM initialization              ...                 5.0s
--------------
SCF ITERATIONS
--------------
ITER       Energy         Delta-E        Max-DP      RMS-DP      [F,P]   Gradient Norm
               ***  Starting incremental Fock matrix formation  ***
                             ****Resetting KDIIS****
                             ****Turning on KDIIS(Cayley)****
  0  -3427.8964881747   0.000000000000 0.03062522  0.00066047  0.5510616   0.203765220
  1  -3429.0479056625  -1.151417487823 0.04642285  0.00092912  0.4973008   0.183167034
  2  -3430.4860362658  -1.438130603249 0.08520597  0.00167717  0.3996721   0.148166936
  3  -3432.2910653063  -1.805029040519 0.13214825  0.00264432  0.2398181   0.089558775
  4  -3433.3321654638  -1.041100157510 0.01583528  0.00018174  0.0075270   0.003837643
  5  -3433.3384887116  -0.006323247830 0.01224765  0.00016573  0.0036252   0.001892271
  6  -3433.3409613604  -0.002472648787 0.00331064  0.00003715  0.0016610   0.000524095
  7  -3433.3411206020  -0.000159241553 0.00303835  0.00002446  0.0012534   0.000274886
  8  -3433.3411775166  -0.000056914586 0.00180239  0.00001139  0.0007903   0.000105400
  9  -3433.3411883951  -0.000010878521 0.00089249  0.00000453  0.0004578   0.000049219
 10  -3433.3411906846  -0.000002289530 0.00091337  0.00000411  0.0002843   0.000027820
 11  -3433.3411917269  -0.000001042271 0.00027806  0.00000113  0.0001011   0.000010598
                          ***Energy convergence achieved***
                           ***RMSP convergence achieved***
 12  -3433.3411918423  -0.000000115409 0.00016328  0.00000062  0.0000493   0.000005740
 13  -3433.3411918703  -0.000000028046 0.00010750  0.00000041  0.0000228   0.000003115

            ***Energy convergence in two consecutive cycles with***
                    ***'reasonable' density convergence***
                       *** signaling convergence ***

                    *** KDIIS BlockDiag (68.284 sec) ***

               *****************************************************
               *                     SUCCESS                       *
               *           SCF CONVERGED AFTER  14 CYCLES          *
               *****************************************************


SMD CDS free energy correction energy :                15.42625     Kcal/mol
Total Energy after SMD CDS correction =             -3433.316608597 Eh

----------------
TOTAL SCF ENERGY
----------------

Total Energy       :        -3433.31660860 Eh          -93425.29457 eV

Components:
Nuclear Repulsion  :        10335.60922726 Eh          281246.22536 eV
Electronic Energy  :       -13768.92583586 Eh         -374671.51993 eV
One Electron Energy:       -25297.64900613 Eh         -688384.02622 eV
Two Electron Energy:        11528.72317027 Eh          313712.50630 eV
CPCM Dielectric    :           -1.01749782 Eh             -27.68752 eV
SMD CDS (Gcds)     :            0.02458328 Eh               0.66895 eV

Virial components:
Potential Energy   :        -6874.69513134 Eh         -187069.96498 eV
Kinetic Energy     :         3441.37852274 Eh           93644.67041 eV
Virial Ratio       :            1.99765736

CPCM Solvation Model Properties:
Surface-charge          :           -0.04135804
Charge-correction       :           -0.00145951 Eh              -0.03972 eV
Free-energy (cav+disp)  :            0.01256637 Eh               0.34195 eV
Corrected G(solv)       :        -3433.30550174 Eh          -93424.99234 eV

---------------
SCF CONVERGENCE
---------------

  Last Energy change         ...   -1.1159e-08  Tolerance :   1.0000e-06
  Last MAX-Density change    ...    3.2546e-05  Tolerance :   1.0000e-05
  Last RMS-Density change    ...    1.3769e-07  Tolerance :   1.0000e-06

             **** THE GBW FILE WAS UPDATED (HKTATREPG.gbw) ****
             **** DENSITY FILE WAS UPDATED (HKTATREPG.scfp) ****
             **** ENERGY FILE WAS UPDATED (HKTATREPG.en.tmp) ****
----------------------
UHF SPIN CONTAMINATION
----------------------

Expectation value of <S**2>     :     0.755006
Ideal value S*(S+1) for S=0.5   :     0.750000
Deviation                       :     0.005006

             **** THE GBW FILE WAS UPDATED (HKTATREPG.gbw) ****
             **** DENSITY FILE WAS UPDATED (HKTATREPG.scfp) ****
----------------
ORBITAL ENERGIES
----------------
                 SPIN UP ORBITALS
  NO   OCC          E(Eh)            E(eV) 
   0   1.0000     -20.311941      -552.7160 
   1   1.0000     -20.307576      -552.5972 
   2   1.0000     -20.307388      -552.5921 
   3   1.0000     -20.273963      -551.6826 
   4   1.0000     -20.273067      -551.6582 
   5   1.0000     -20.267333      -551.5022 
   6   1.0000     -20.230491      -550.4996 
   7   1.0000     -20.183899      -549.2318 
   8   1.0000     -20.180819      -549.1480 
   9   1.0000     -20.131872      -547.8161 
  10   1.0000     -20.119152      -547.4700 
  11   1.0000     -20.027266      -544.9696 
  12   1.0000     -19.881693      -541.0084 
  13   1.0000     -19.788484      -538.4720 
  14   1.0000     -15.629513      -425.3007 
  15   1.0000     -15.615524      -424.9200 
  16   1.0000     -15.504161      -421.8897 
  17   1.0000     -15.498842      -421.7449 
  18   1.0000     -15.497637      -421.7121 
  19   1.0000     -15.458136      -420.6373 
  20   1.0000     -15.457703      -420.6255 
  21   1.0000     -15.454891      -420.5490 
  22   1.0000     -15.454333      -420.5338 
  23   1.0000     -15.447984      -420.3610 
  24   1.0000     -15.441246      -420.1777 
  25   1.0000     -15.435981      -420.0344 
  26   1.0000     -15.431011      -419.8992 
  27   1.0000     -15.390001      -418.7832 
  28   1.0000     -15.387965      -418.7278 
  29   1.0000     -11.451806      -311.6195 
  30   1.0000     -11.376232      -309.5630 
  31   1.0000     -11.367094      -309.3144 
  32   1.0000     -11.366439      -309.2965 
  33   1.0000     -11.363318      -309.2116 
  34   1.0000     -11.339162      -308.5543 
  35   1.0000     -11.336698      -308.4872 
  36   1.0000     -11.331535      -308.3467 
  37   1.0000     -11.304222      -307.6035 
  38   1.0000     -11.300275      -307.4961 
  39   1.0000     -11.257406      -306.3296 
  40   1.0000     -11.255376      -306.2743 
  41   1.0000     -11.255233      -306.2705 
  42   1.0000     -11.252976      -306.2091 
  43   1.0000     -11.245996      -306.0191 
  44   1.0000     -11.243494      -305.9510 
  45   1.0000     -11.241352      -305.8927 
  46   1.0000     -11.236667      -305.7653 
  47   1.0000     -11.236230      -305.7534 
  48   1.0000     -11.234580      -305.7085 
  49   1.0000     -11.227195      -305.5075 
  50   1.0000     -11.222435      -305.3780 
  51   1.0000     -11.221077      -305.3410 
  52   1.0000     -11.220180      -305.3166 
  53   1.0000     -11.219748      -305.3049 
  54   1.0000     -11.217061      -305.2318 
  55   1.0000     -11.184823      -304.3545 
  56   1.0000     -11.183575      -304.3205 
  57   1.0000     -11.175550      -304.1022 
  58   1.0000     -11.174614      -304.0767 
  59   1.0000     -11.170084      -303.9534 
  60   1.0000     -11.168293      -303.9047 
  61   1.0000     -11.167893      -303.8938 
  62   1.0000     -11.166387      -303.8528 
  63   1.0000     -11.155767      -303.5638 
  64   1.0000     -11.151464      -303.4468 
  65   1.0000     -11.143099      -303.2191 
  66   1.0000     -11.138996      -303.1075 
  67   1.0000     -11.129936      -302.8609 
  68   1.0000     -11.101806      -302.0955 
  69   1.0000     -10.959162      -298.2140 
  70   1.0000      -1.498512       -40.7766 
  71   1.0000      -1.450893       -39.4808 
  72   1.0000      -1.446571       -39.3632 
  73   1.0000      -1.428519       -38.8720 
  74   1.0000      -1.404539       -38.2195 
  75   1.0000      -1.401437       -38.1350 
  76   1.0000      -1.399539       -38.0834 
  77   1.0000      -1.390796       -37.8455 
  78   1.0000      -1.375622       -37.4326 
  79   1.0000      -1.365192       -37.1488 
  80   1.0000      -1.358867       -36.9767 
  81   1.0000      -1.344425       -36.5837 
  82   1.0000      -1.308484       -35.6057 
  83   1.0000      -1.293140       -35.1881 
  84   1.0000      -1.290018       -35.1032 
  85   1.0000      -1.284661       -34.9574 
  86   1.0000      -1.254789       -34.1446 
  87   1.0000      -1.250941       -34.0398 
  88   1.0000      -1.246215       -33.9112 
  89   1.0000      -1.245717       -33.8977 
  90   1.0000      -1.231666       -33.5153 
  91   1.0000      -1.228752       -33.4360 
  92   1.0000      -1.226532       -33.3756 
  93   1.0000      -1.189503       -32.3680 
  94   1.0000      -1.184499       -32.2318 
  95   1.0000      -1.176412       -32.0118 
  96   1.0000      -1.148531       -31.2531 
  97   1.0000      -1.143604       -31.1190 
  98   1.0000      -1.134835       -30.8804 
  99   1.0000      -1.124143       -30.5895 
 100   1.0000      -1.107620       -30.1399 
 101   1.0000      -1.098656       -29.8960 
 102   1.0000      -1.079936       -29.3865 
 103   1.0000      -1.076138       -29.2832 
 104   1.0000      -1.061867       -28.8949 
 105   1.0000      -1.056934       -28.7606 
 106   1.0000      -1.049064       -28.5465 
 107   1.0000      -1.028891       -27.9975 
 108   1.0000      -1.020953       -27.7815 
 109   1.0000      -1.011797       -27.5324 
 110   1.0000      -0.996864       -27.1261 
 111   1.0000      -0.988639       -26.9022 
 112   1.0000      -0.982517       -26.7357 
 113   1.0000      -0.969060       -26.3695 
 114   1.0000      -0.960038       -26.1240 
 115   1.0000      -0.937105       -25.4999 
 116   1.0000      -0.932033       -25.3619 
 117   1.0000      -0.917529       -24.9672 
 118   1.0000      -0.903270       -24.5792 
 119   1.0000      -0.892981       -24.2992 
 120   1.0000      -0.884011       -24.0552 
 121   1.0000      -0.880716       -23.9655 
 122   1.0000      -0.865510       -23.5517 
 123   1.0000      -0.854540       -23.2532 
 124   1.0000      -0.845127       -22.9971 
 125   1.0000      -0.843289       -22.9471 
 126   1.0000      -0.840591       -22.8736 
 127   1.0000      -0.838049       -22.8045 
 128   1.0000      -0.831886       -22.6368 
 129   1.0000      -0.820297       -22.3214 
 130   1.0000      -0.817518       -22.2458 
 131   1.0000      -0.812377       -22.1059 
 132   1.0000      -0.799271       -21.7493 
 133   1.0000      -0.797300       -21.6956 
 134   1.0000      -0.793696       -21.5976 
 135   1.0000      -0.789888       -21.4939 
 136   1.0000      -0.787927       -21.4406 
 137   1.0000      -0.782599       -21.2956 
 138   1.0000      -0.780058       -21.2265 
 139   1.0000      -0.776659       -21.1340 
 140   1.0000      -0.774377       -21.0719 
 141   1.0000      -0.772056       -21.0087 
 142   1.0000      -0.760642       -20.6981 
 143   1.0000      -0.755697       -20.5636 
 144   1.0000      -0.754270       -20.5247 
 145   1.0000      -0.751016       -20.4362 
 146   1.0000      -0.738982       -20.1087 
 147   1.0000      -0.736447       -20.0397 
 148   1.0000      -0.732622       -19.9357 
 149   1.0000      -0.718608       -19.5543 
 150   1.0000      -0.707552       -19.2535 
 151   1.0000      -0.706994       -19.2383 
 152   1.0000      -0.701579       -19.0909 
 153   1.0000      -0.696066       -18.9409 
 154   1.0000      -0.693705       -18.8767 
 155   1.0000      -0.687030       -18.6951 
 156   1.0000      -0.684906       -18.6372 
 157   1.0000      -0.682183       -18.5631 
 158   1.0000      -0.679186       -18.4816 
 159   1.0000      -0.677180       -18.4270 
 160   1.0000      -0.670680       -18.2501 
 161   1.0000      -0.663449       -18.0534 
 162   1.0000      -0.662041       -18.0150 
 163   1.0000      -0.660167       -17.9641 
 164   1.0000      -0.658743       -17.9253 
 165   1.0000      -0.653570       -17.7845 
 166   1.0000      -0.652247       -17.7486 
 167   1.0000      -0.647782       -17.6270 
 168   1.0000      -0.641319       -17.4512 
 169   1.0000      -0.639116       -17.3912 
 170   1.0000      -0.635323       -17.2880 
 171   1.0000      -0.631125       -17.1738 
 172   1.0000      -0.626660       -17.0523 
 173   1.0000      -0.621139       -16.9021 
 174   1.0000      -0.617489       -16.8027 
 175   1.0000      -0.614668       -16.7260 
 176   1.0000      -0.611719       -16.6457 
 177   1.0000      -0.610341       -16.6082 
 178   1.0000      -0.603789       -16.4299 
 179   1.0000      -0.601641       -16.3715 
 180   1.0000      -0.600240       -16.3334 
 181   1.0000      -0.597604       -16.2616 
 182   1.0000      -0.595436       -16.2026 
 183   1.0000      -0.589926       -16.0527 
 184   1.0000      -0.586044       -15.9471 
 185   1.0000      -0.582997       -15.8642 
 186   1.0000      -0.582520       -15.8512 
 187   1.0000      -0.580410       -15.7938 
 188   1.0000      -0.576835       -15.6965 
 189   1.0000      -0.575117       -15.6497 
 190   1.0000      -0.573182       -15.5971 
 191   1.0000      -0.571756       -15.5583 
 192   1.0000      -0.568528       -15.4704 
 193   1.0000      -0.567403       -15.4398 
 194   1.0000      -0.563428       -15.3317 
 195   1.0000      -0.562358       -15.3025 
 196   1.0000      -0.561163       -15.2700 
 197   1.0000      -0.559224       -15.2173 
 198   1.0000      -0.557669       -15.1749 
 199   1.0000      -0.555829       -15.1249 
 200   1.0000      -0.550179       -14.9711 
 201   1.0000      -0.547734       -14.9046 
 202   1.0000      -0.545284       -14.8379 
 203   1.0000      -0.542877       -14.7724 
 204   1.0000      -0.541746       -14.7417 
 205   1.0000      -0.540009       -14.6944 
 206   1.0000      -0.536683       -14.6039 
 207   1.0000      -0.535055       -14.5596 
 208   1.0000      -0.526212       -14.3189 
 209   1.0000      -0.524504       -14.2725 
 210   1.0000      -0.523243       -14.2382 
 211   1.0000      -0.520440       -14.1619 
 212   1.0000      -0.516987       -14.0679 
 213   1.0000      -0.516347       -14.0505 
 214   1.0000      -0.512483       -13.9454 
 215   1.0000      -0.509501       -13.8642 
 216   1.0000      -0.505543       -13.7565 
 217   1.0000      -0.504229       -13.7208 
 218   1.0000      -0.503454       -13.6997 
 219   1.0000      -0.501355       -13.6426 
 220   1.0000      -0.497131       -13.5276 
 221   1.0000      -0.494793       -13.4640 
 222   1.0000      -0.492100       -13.3907 
 223   1.0000      -0.491739       -13.3809 
 224   1.0000      -0.489903       -13.3309 
 225   1.0000      -0.488869       -13.3028 
 226   1.0000      -0.484267       -13.1776 
 227   1.0000      -0.481143       -13.0926 
 228   1.0000      -0.479356       -13.0439 
 229   1.0000      -0.473624       -12.8880 
 230   1.0000      -0.468013       -12.7353 
 231   1.0000      -0.454051       -12.3554 
 232   1.0000      -0.444657       -12.0997 
 233   1.0000      -0.436814       -11.8863 
 234   1.0000      -0.434144       -11.8137 
 235   1.0000      -0.426646       -11.6096 
 236   1.0000      -0.425306       -11.5732 
 237   1.0000      -0.423468       -11.5232 
 238   1.0000      -0.420354       -11.4384 
 239   1.0000      -0.419728       -11.4214 
 240   1.0000      -0.409171       -11.1341 
 241   1.0000      -0.407727       -11.0948 
 242   1.0000      -0.406031       -11.0487 
 243   1.0000      -0.403942       -10.9918 
 244   1.0000      -0.402844       -10.9619 
 245   1.0000      -0.400295       -10.8926 
 246   1.0000      -0.391531       -10.6541 
[...]
  7 C      5.9232     6.0000     0.0768     3.9391     3.9391     0.0000
  8 N      7.3764     7.0000    -0.3764     3.4128     3.4128     0.0000
  9 C      5.9216     6.0000     0.0784     3.9012     3.9012     0.0000
 10 H      0.8245     1.0000     0.1755     0.9692     0.9692     0.0000
 11 N      7.3422     7.0000    -0.3422     3.0102     3.0102     0.0000
 12 C      6.0956     6.0000    -0.0956     3.9404     3.9404     0.0000
 13 H      0.8513     1.0000     0.1487     0.9779     0.9779     0.0000
 14 H      0.6774     1.0000     0.3226     0.8959     0.8959     0.0000
 15 H      0.5757     1.0000     0.4243     0.8199     0.8199     0.0000
 16 H      0.7835     1.0000     0.2165     0.9531     0.9531     0.0000
 17 H      0.5814     1.0000     0.4186     0.8248     0.8248    -0.0000
 18 H      0.6057     1.0000     0.3943     0.8445     0.8445     0.0000
 19 N      7.4078     7.0000    -0.4078     3.2211     3.2211     0.0000
 20 C      6.0174     6.0000    -0.0174     3.9217     3.9217     0.0000
 21 C      5.5595     6.0000     0.4405     3.8831     3.8831     0.0000
 22 O      8.4888     8.0000    -0.4888     2.0827     2.0827     0.0000
 23 C      6.2420     6.0000    -0.2420     3.9441     3.9441     0.0000
 24 C      6.2454     6.0000    -0.2454     3.9569     3.9569    -0.0000
 25 C      6.2442     6.0000    -0.2442     3.9483     3.9483    -0.0000
 26 C      6.1221     6.0000    -0.1221     3.8153     3.8153    -0.0000
 27 N      7.4967     7.0000    -0.4967     3.4207     3.4207    -0.0000
 28 H      0.8174     1.0000     0.1826     0.9667     0.9667     0.0000
 29 H      0.8607     1.0000     0.1393     0.9806     0.9806     0.0000
 30 H      0.8362     1.0000     0.1638     0.9732     0.9732     0.0000
 31 H      0.8631     1.0000     0.1369     0.9813     0.9813    -0.0000
 32 H      0.8610     1.0000     0.1390     0.9807     0.9807    -0.0000
 33 H      0.8527     1.0000     0.1473     0.9783     0.9783    -0.0000
 34 H      0.8528     1.0000     0.1472     0.9783     0.9783    -0.0000
 35 H      0.8139     1.0000     0.1861     0.9654     0.9654    -0.0000
 36 H      0.8142     1.0000     0.1858     0.9655     0.9655    -0.0000
 37 H      0.6075     1.0000     0.3925     0.8459     0.8459     0.0000
 38 H      0.6120     1.0000     0.3880     0.8495     0.8495    -0.0000
 39 H      0.6095     1.0000     0.3905     0.8475     0.8475    -0.0000
 40 H      0.6991     1.0000     0.3009     0.9095     0.9095     0.0000
 41 N      7.4025     7.0000    -0.4025     3.2482     3.2482     0.0000
 42 C      6.0346     6.0000    -0.0346     3.9173     3.9173     0.0000
 43 C      5.5940     6.0000     0.4060     3.9130     3.9130     0.0000
 44 O      8.4878     8.0000    -0.4878     1.9931     1.9931     0.0000
 45 C      6.3720     6.0000    -0.3720     3.9469     3.9469     0.0000
 46 C      5.9597     6.0000     0.0403     3.9384     3.9384     0.0000
 47 O      8.6104     8.0000    -0.6104     1.7955     1.7955     0.0000
 48 H      0.8630     1.0000     0.1370     0.9812     0.9812     0.0000
 49 H      0.8692     1.0000     0.1308     0.9829     0.9829    -0.0000
 50 H      0.8822     1.0000     0.1178     0.9861     0.9861    -0.0000
 51 H      0.8650     1.0000     0.1350     0.9818     0.9818     0.0000
 52 H      0.8209     1.0000     0.1791     0.9679     0.9679     0.0000
 53 H      0.6076     1.0000     0.3924     0.8460     0.8460     0.0000
 54 H      0.6985     1.0000     0.3015     0.9091     0.9091     0.0000
 55 N      7.4080     7.0000    -0.4080     3.2370     3.2370     0.0000
 56 C      6.0146     6.0000    -0.0146     3.9226     3.9226     0.0000
 57 C      5.5576     6.0000     0.4424     3.8823     3.8823     0.0000
 58 O      8.4906     8.0000    -0.4906     2.0800     2.0800     0.0000
 59 H      0.7100     1.0000     0.2900     0.9159     0.9159     0.0000
 60 H      0.8196     1.0000     0.1804     0.9674     0.9674     0.0000
 61 C      6.3668     6.0000    -0.3668     3.9273     3.9273     0.0000
 62 H      0.8399     1.0000     0.1601     0.9744     0.9744    -0.0000
 63 H      0.8603     1.0000     0.1397     0.9805     0.9805    -0.0000
 64 H      0.8608     1.0000     0.1392     0.9806     0.9806    -0.0000
 65 N      7.4050     7.0000    -0.4050     3.2427     3.2427     0.0000
 66 C      6.0343     6.0000    -0.0343     3.9179     3.9179     0.0000
 67 C      5.5948     6.0000     0.4052     3.9127     3.9127     0.0000
 68 O      8.4890     8.0000    -0.4890     1.9918     1.9918     0.0000
 69 C      6.3740     6.0000    -0.3740     3.9463     3.9463     0.0000
 70 C      5.9591     6.0000     0.0409     3.9385     3.9385     0.0000
 71 O      8.6116     8.0000    -0.6116     1.7946     1.7946     0.0000
 72 H      0.8656     1.0000     0.1344     0.9819     0.9819     0.0000
 73 H      0.8715     1.0000     0.1285     0.9835     0.9835     0.0000
 74 H      0.8762     1.0000     0.1238     0.9847     0.9847     0.0000
 75 H      0.8664     1.0000     0.1336     0.9821     0.9821     0.0000
 76 H      0.8223     1.0000     0.1777     0.9684     0.9684     0.0000
 77 H      0.6079     1.0000     0.3921     0.8463     0.8463    -0.0000
 78 H      0.6986     1.0000     0.3014     0.9092     0.9092     0.0000
 79 N      7.4089     7.0000    -0.4089     3.2342     3.2342     0.0000
 80 C      6.0170     6.0000    -0.0170     3.9253     3.9253     0.0000
 81 C      5.5963     6.0000     0.4037     3.9108     3.9108     0.0000
 82 O      8.4906     8.0000    -0.4906     1.9905     1.9905     0.0000
 83 C      6.2371     6.0000    -0.2371     3.9458     3.9458     0.0000
 84 H      0.8614     1.0000     0.1386     0.9808     0.9808     0.0000
 85 H      0.8380     1.0000     0.1620     0.9738     0.9738     0.0000
 86 C      6.2352     6.0000    -0.2352     3.9560     3.9560     0.0000
 87 H      0.8555     1.0000     0.1445     0.9791     0.9791     0.0000
 88 H      0.8713     1.0000     0.1287     0.9834     0.9834     0.0000
 89 C      6.1137     6.0000    -0.1137     3.8662     3.8662     0.0000
 90 H      0.8382     1.0000     0.1618     0.9738     0.9738     0.0000
 91 H      0.8374     1.0000     0.1626     0.9736     0.9736    -0.0000
 92 N      7.3901     7.0000    -0.3901     3.2407     3.2407    -0.0000
 93 H      0.6757     1.0000     0.3243     0.8949     0.8949     0.0000
 94 C      5.5089     6.0000     0.4911     3.9255     3.9255     0.0000
 95 N      7.5134     7.0000    -0.5134     3.2010     3.2010    -0.0000
 96 H      0.6268     1.0000     0.3732     0.8607     0.8607     0.0000
 97 H      0.7127     1.0000     0.2873     0.9175     0.9175    -0.0000
 98 N      7.4835     7.0000    -0.4835     3.2357     3.2357     0.0000
 99 H      0.6876     1.0000     0.3124     0.9024     0.9024    -0.0000
100 H      0.6620     1.0000     0.3380     0.8858     0.8858     0.0000
101 H      0.7092     1.0000     0.2908     0.9155     0.9155     0.0000
102 H      0.8265     1.0000     0.1735     0.9699     0.9699     0.0000
103 N      7.4152     7.0000    -0.4152     3.2360     3.2360     0.0000
104 C      5.9998     6.0000     0.0002     3.9182     3.9182     0.0000
105 C      5.7447     6.0000     0.2553     3.9206     3.9206     0.0000
106 O      8.6397     8.0000    -0.6397     1.7450     1.7450     0.0000
107 C      6.2258     6.0000    -0.2258     3.9539     3.9539     0.0000
108 H      0.8576     1.0000     0.1424     0.9797     0.9797     0.0000
109 H      0.8685     1.0000     0.1315     0.9827     0.9827     0.0000
110 C      6.2778     6.0000    -0.2778     3.9637     3.9637     0.0000
111 H      0.8766     1.0000     0.1234     0.9848     0.9848     0.0000
112 H      0.8729     1.0000     0.1271     0.9839     0.9839     0.0000
113 C      5.6332     6.0000     0.3668     3.9350     3.9350     0.0000
114 O      8.6330     8.0000    -0.6330     1.8669     1.8669     0.0000
115 O      8.6938     8.0000    -0.6938     1.6985     1.6985     0.0000
116 H      0.7139     1.0000     0.2861     0.9182     0.9182     0.0000
117 H      0.8419     1.0000     0.1581     0.9750     0.9750     0.0000
118 N      7.3013     7.0000    -0.3013     3.0023     3.0023     0.0000
119 C      6.0316     6.0000    -0.0316     3.9162     3.9162     0.0000
120 C      5.6096     6.0000     0.3904     3.9225     3.9225     0.0000
121 O      8.5189     8.0000    -0.5189     1.9606     1.9606     0.0000
122 H      0.8160     1.0000     0.1840     0.9661     0.9661     0.0000
123 C      6.1647     6.0000    -0.1647     3.9061     3.9061     0.0000
124 H      0.6855     1.0000     0.3145     0.9011     0.9011     0.0000
125 H      0.8038     1.0000     0.1962     0.9615     0.9615     0.0000
126 C      6.2237     6.0000    -0.2237     3.9390     3.9390     0.0000
127 H      0.8418     1.0000     0.1582     0.9750     0.9750     0.0000
128 H      0.8439     1.0000     0.1561     0.9756     0.9756     0.0000
129 C      6.2437     6.0000    -0.2437     3.9440     3.9440     0.0000
130 H      0.8540     1.0000     0.1460     0.9787     0.9787     0.0000
131 H      0.8379     1.0000     0.1621     0.9737     0.9737     0.0000
132 N      7.4207     7.0000    -0.4207     3.2603     3.2603     0.0000
133 C      6.1708     6.0000    -0.1708     3.8447     3.8409     0.0039
134 C      5.9430     6.0000     0.0570     3.7993     3.4382     0.3612
135 O      8.8396     8.0000    -0.8396     1.6040     1.5461     0.0580
136 H      0.9287     1.0000     0.0713     0.9949     0.9935     0.0014
137 H      0.9283     1.0000     0.0717     0.9949     0.9935     0.0014
138 H      0.7357     1.0000     0.2643     0.9302     0.9302     0.0000
139 O      8.9143     8.0000    -0.9143     1.3686     1.3492     0.0194

  Mayer bond orders larger than 0.100000
B(  0-N ,  1-C ) :   0.9145 B(  0-N , 15-H ) :   0.7806 B(  0-N , 17-H ) :   0.7873 
B(  0-N , 18-H ) :   0.8128 B(  1-C ,  2-C ) :   0.9502 B(  1-C ,  4-C ) :   0.9771 
B(  1-C , 16-H ) :   0.9245 B(  2-C ,  3-O ) :   1.7485 B(  2-C , 19-N ) :   1.1823 
B(  3-O , 19-N ) :   0.1483 B(  4-C ,  5-H ) :   0.9482 B(  4-C ,  6-H ) :   0.9436 
B(  4-C ,  7-C ) :   1.0190 B(  7-C ,  8-N ) :   1.1678 B(  7-C ,  9-C ) :   0.1135 
B(  7-C , 12-C ) :   1.5911 B(  8-N ,  9-C ) :   1.1982 B(  8-N , 14-H ) :   0.8741 
B(  9-C , 10-H ) :   0.9433 B(  9-C , 11-N ) :   1.5987 B( 11-N , 12-C ) :   1.2624 
B( 12-C , 13-H ) :   0.9589 B( 19-N , 20-C ) :   0.9660 B( 19-N , 40-H ) :   0.8741 
B( 20-C , 21-C ) :   0.9573 B( 20-C , 23-C ) :   0.9785 B( 20-C , 28-H ) :   0.9330 
B( 21-C , 22-O ) :   1.6397 B( 21-C , 41-N ) :   1.2224 B( 22-O , 41-N ) :   0.1408 
B( 22-O , 53-H ) :   0.1647 B( 23-C , 24-C ) :   1.0060 B( 23-C , 29-H ) :   0.9643 
B( 23-C , 30-H ) :   0.9463 B( 24-C , 25-C ) :   1.0043 B( 24-C , 31-H ) :   0.9641 
B( 24-C , 32-H ) :   0.9607 B( 25-C , 26-C ) :   1.0025 B( 25-C , 33-H ) :   0.9611 
B( 25-C , 34-H ) :   0.9611 B( 26-C , 27-N ) :   0.9001 B( 26-C , 35-H ) :   0.9481 
B( 26-C , 36-H ) :   0.9485 B( 27-N , 37-H ) :   0.8346 B( 27-N , 38-H ) :   0.8373 
B( 27-N , 39-H ) :   0.8351 B( 41-N , 42-C ) :   0.9554 B( 41-N , 54-H ) :   0.8749 
B( 42-C , 43-C ) :   0.9538 B( 42-C , 46-C ) :   0.9634 B( 42-C , 52-H ) :   0.9340 
B( 43-C , 44-O ) :   1.7340 B( 43-C , 55-N ) :   1.1860 B( 44-O , 55-N ) :   0.1543 
B( 45-C , 46-C ) :   0.9998 B( 45-C , 48-H ) :   0.9700 B( 45-C , 49-H ) :   0.9726 
B( 45-C , 50-H ) :   0.9689 B( 46-C , 47-O ) :   0.9874 B( 46-C , 51-H ) :   0.9492 
B( 47-O , 53-H ) :   0.6665 B( 55-N , 56-C ) :   0.9645 B( 55-N , 59-H ) :   0.8788 
B( 56-C , 57-C ) :   0.9568 B( 56-C , 60-H ) :   0.9296 B( 56-C , 61-C ) :   0.9924 
B( 57-C , 58-O ) :   1.6410 B( 57-C , 65-N ) :   1.2210 B( 58-O , 65-N ) :   0.1404 
B( 58-O , 77-H ) :   0.1657 B( 61-C , 62-H ) :   0.9579 B( 61-C , 63-H ) :   0.9708 
B( 61-C , 64-H ) :   0.9698 B( 65-N , 66-C ) :   0.9557 B( 65-N , 78-H ) :   0.8759 
B( 66-C , 67-C ) :   0.9539 B( 66-C , 70-C ) :   0.9632 B( 66-C , 76-H ) :   0.9344 
B( 67-C , 68-O ) :   1.7313 B( 67-C , 79-N ) :   1.1873 B( 68-O , 79-N ) :   0.1516 
B( 69-C , 70-C ) :   1.0000 B( 69-C , 72-H ) :   0.9710 B( 69-C , 73-H ) :   0.9732 
B( 69-C , 74-H ) :   0.9696 B( 70-C , 71-O ) :   0.9872 B( 70-C , 75-H ) :   0.9496 
B( 71-O , 77-H ) :   0.6657 B( 79-N , 80-C ) :   0.9630 B( 79-N ,101-H ) :   0.8787 
B( 80-C , 81-C ) :   0.9518 B( 80-C , 83-C ) :   0.9836 B( 80-C ,102-H ) :   0.9349 
B( 81-C , 82-O ) :   1.7319 B( 81-C ,103-N ) :   1.1875 B( 82-O ,103-N ) :   0.1542 
B( 83-C , 84-H ) :   0.9624 B( 83-C , 85-H ) :   0.9465 B( 83-C , 86-C ) :   1.0066 
B( 86-C , 87-H ) :   0.9603 B( 86-C , 88-H ) :   0.9595 B( 86-C , 89-C ) :   1.0011 
B( 89-C , 90-H ) :   0.9486 B( 89-C , 91-H ) :   0.9542 B( 89-C , 92-N ) :   0.9285 
B( 92-N , 93-H ) :   0.8690 B( 92-N , 94-C ) :   1.2694 B( 94-C , 95-N ) :   1.2914 
B( 94-C , 98-N ) :   1.3223 B( 95-N , 96-H ) :   0.8442 B( 95-N , 97-H ) :   0.9006 
B( 98-N , 99-H ) :   0.8817 B( 98-N ,100-H ) :   0.8658 B(103-N ,104-C ) :   0.9604 
B(103-N ,116-H ) :   0.8751 B(104-C ,105-C ) :   0.8814 B(104-C ,107-C ) :   0.9842 
B(104-C ,117-H ) :   0.9394 B(105-C ,106-O ) :   1.4056 B(105-C ,118-N ) :   0.9923 
B(105-C ,123-C ) :   0.3925 B(105-C ,124-H ) :   0.1979 B(106-O ,118-N ) :   0.1018 
B(106-O ,123-C ) :   0.1016 B(107-C ,108-H ) :   0.9593 B(107-C ,109-H ) :   0.9637 
B(107-C ,110-C ) :   1.0032 B(110-C ,111-H ) :   0.9613 B(110-C ,112-H ) :   0.9666 
B(110-C ,113-C ) :   0.9479 B(113-C ,114-O ) :   1.5679 B(113-C ,115-O ) :   1.4104 
B(114-O ,115-O ) :   0.2374 B(118-N ,119-C ) :   0.9378 B(118-N ,123-C ) :   0.8420 
B(119-C ,120-C ) :   0.9456 B(119-C ,122-H ) :   0.9354 B(119-C ,129-C ) :   0.9877 
B(120-C ,121-O ) :   1.7050 B(120-C ,132-N ) :   1.2250 B(121-O ,132-N ) :   0.1681 
B(123-C ,124-H ) :   0.6254 B(123-C ,125-H ) :   0.9197 B(123-C ,126-C ) :   0.9714 
B(126-C ,127-H ) :   0.9560 B(126-C ,128-H ) :   0.9596 B(126-C ,129-C ) :   1.0023 
B(129-C ,130-H ) :   0.9611 B(129-C ,131-H ) :   0.9524 B(132-N ,133-C ) :   0.9340 
B(132-N ,138-H ) :   0.8905 B(133-C ,134-C ) :   0.8821 B(133-C ,136-H ) :   0.9544 
B(133-C ,137-H ) :   0.9546 B(134-C ,135-O ) :   1.3520 B(134-C ,139-O ) :   1.1745 
B(135-O ,139-O ) :   0.1156 

-------
TIMINGS
-------

Total SCF time: 0 days 0 hours 1 min 8 sec 

Total time                  ....      68.819 sec
Sum of individual times     ....      62.760 sec  ( 91.2%)

Fock matrix formation       ....      58.607 sec  ( 85.2%)
Diagonalization             ....       3.172 sec  (  4.6%)
Density matrix formation    ....       0.078 sec  (  0.1%)
Population analysis         ....       0.265 sec  (  0.4%)
Initial guess               ....       0.638 sec  (  0.9%)
Orbital Transformation      ....       0.000 sec  (  0.0%)
Orbital Orthonormalization  ....       0.000 sec  (  0.0%)
DIIS solution               ....       0.000 sec  (  0.0%)


-------------------------------------------------------------------------------
                          DFT DISPERSION CORRECTION                            
                                                                               
                              DFTD3 V3.1  Rev 1                                
                          USING Becke-Johnson damping                          
-------------------------------------------------------------------------------
Hartree-Fock is recognized
Active option DFTDOPT                   ...         4   

molecular C6(AA) [au] = 171502.850601 


            DFT-D V3
 parameters
 using HF/MINIX parameters
 s6 scaling factor         :     1.0000 
 a1 scaling factor         :     0.4171 
 s8 scaling factor         :     0.8777 
 a2 scaling factor         :     2.9149 
 ad hoc parameters k1-k3   :    16.0000     1.3333    -4.0000 

 Edisp/kcal,au: -455.321726354143  -0.725601280306 
 E6   /kcal   : -261.295193235 
 E8   /kcal   : -194.026533119 
 % E8         :  42.613062784 

-------------------------   ----------------
Dispersion correction           -0.725601280
-------------------------   ----------------

------------------   -----------------
gCP+bas correction        -0.687178952
------------------   -----------------
----------------------------   ----------------
Total correction to HF/MINIX       -1.412780232
----------------------------   ----------------


-------------------------   --------------------
FINAL SINGLE POINT ENERGY     -3434.729388829509
-------------------------   --------------------


                            ***************************************
                            *     ORCA property calculations      *
                            ***************************************

                                    ---------------------
                                    Active property flags
                                    ---------------------
   (+) Dipole Moment


------------------------------------------------------------------------------
                       ORCA ELECTRIC PROPERTIES CALCULATION
------------------------------------------------------------------------------

Dipole Moment Calculation                       ... on
Quadrupole Moment Calculation                   ... off
Polarizability Calculation                      ... off
GBWName                                         ... HKTATREPG.gbw
Electron density file                           ... HKTATREPG.scfp
The origin for moment calculation is the CENTER OF MASS  = (23.609082, -0.302366 16.663742)

-------------
DIPOLE MOMENT
-------------
                                X             Y             Z
Electronic contribution:    -14.91412      10.67195     -25.87115
Nuclear contribution   :    -92.12336     -28.78486     -15.23686
                        -----------------------------------------
Total Dipole Moment    :   -107.03748     -18.11291     -41.10801
                        -----------------------------------------
Magnitude (a.u.)       :    116.08173
Magnitude (Debye)      :    295.05630



--------------------
Rotational spectrum 
--------------------
 
Rotational constants in cm-1:     0.002053     0.000191     0.000176 
Rotational constants in MHz :    61.542552     5.713369     5.271911 

 Dipole components along the rotational axes: 
x,y,z [a.u.] :   109.176237    39.238401     3.983043 
x,y,z [Debye]:   277.503940    99.736090    10.124091 

 
--------------------------------------------------------------------------
WARNING: No preset parameters were found for the device that Open MPI
detected:

  Local host:            c0703a-s21
  Device name:           mlx5_0
  Device vendor ID:      0x02c9
  Device vendor part ID: 4123

Default device parameters will be used, which may result in lower
performance.  You can edit any of the files specified by the
btl_openib_device_param_files MCA parameter to set values for your
device.

NOTE: You can turn off this warning by setting the MCA parameter
      btl_openib_warn_no_device_params_found to 0.
--------------------------------------------------------------------------
--------------------------------------------------------------------------
WARNING: There was an error initializing an OpenFabrics device.

  Local host:   c0703a-s21
  Local device: mlx5_0
--------------------------------------------------------------------------
[c0703a-s21.ufhpc:84298] 14 more processes have sent help message help-mpi-btl-openib.txt / no device params found
[c0703a-s21.ufhpc:84298] Set MCA parameter "orte_base_help_aggregate" to 0 to see all help / error messages
[c0703a-s21.ufhpc:84298] 14 more processes have sent help message help-mpi-btl-openib.txt / error in device init

Timings for individual modules:

Sum of individual times         ...       73.990 sec (=   1.233 min)
GTO integral calculation        ...        3.426 sec (=   0.057 min)   4.6 %
SCF iterations                  ...       70.564 sec (=   1.176 min)  95.4 %
                             ****ORCA TERMINATED NORMALLY****
TOTAL RUN TIME: 0 days 0 hours 1 minutes 15 seconds 855 msec
