/home/zfg2013/blue_zfg2013/INPS
c30a-s28.ufhpc
Sat Aug  5 17:53:43 EDT 2023

                                 *****************
                                 * O   R   C   A *
                                 *****************

           --- An Ab Initio, DFT and Semiempirical electronic structure package ---

                  #######################################################
                  #                        -***-                        #
                  #          Department of theory and spectroscopy      #
                  #               Directorship: Frank Neese             #
                  #        Max Planck Institute fuer Kohlenforschung    #
                  #                Kaiser Wilhelm Platz 1               #
                  #                 D-45470 Muelheim/Ruhr               #
                  #                      Germany                        #
                  #                                                     #
                  #                  All rights reserved                #
                  #                        -***-                        #
                  #######################################################


                         Program Version 4.2.1 -  RELEASE  -


 With contributions from (in alphabetic order):
   Daniel Aravena         : Magnetic Suceptibility
   Michael Atanasov       : Ab Initio Ligand Field Theory (pilot matlab implementation)
   Alexander A. Auer      : GIAO ZORA, VPT2
   Ute Becker             : Parallelization
   Giovanni Bistoni       : ED, misc. LED, open-shell LED, HFLD
   Martin Brehm           : Molecular dynamics
   Dmytro Bykov           : SCF Hessian
   Vijay G. Chilkuri      : MRCI spin determinant printing, contributions to CSF-ICE
   Dipayan Datta          : RHF DLPNO-CCSD density
   Achintya Kumar Dutta   : EOM-CC, STEOM-CC
   Dmitry Ganyushin       : Spin-Orbit,Spin-Spin,Magnetic field MRCI
   Miquel Garcia          : C-PCM Hessian, Gaussian charge scheme
   Yang Guo               : DLPNO-NEVPT2, CIM, IAO-localization
   Andreas Hansen         : Spin unrestricted coupled pair/coupled cluster methods
   Benjamin Helmich-Paris : CASSCF linear response (MC-RPA)
   Lee Huntington         : MR-EOM, pCC
   Robert Izsak           : Overlap fitted RIJCOSX, COSX-SCS-MP3, EOM
   Christian Kollmar      : KDIIS, OOCD, Brueckner-CCSD(T), CCSD density
   Simone Kossmann        : Meta GGA functionals, TD-DFT gradient, OOMP2, MP2 Hessian
   Martin Krupicka        : AUTO-CI
   Lucas Lang             : DCDCAS
   Dagmar Lenk            : GEPOL surface, SMD
   Dimitrios Liakos       : Extrapolation schemes; Compound Job, initial MDCI parallelization
   Dimitrios Manganas     : Further ROCIS development; embedding schemes
   Dimitrios Pantazis     : SARC Basis sets
   Taras Petrenko         : DFT Hessian,TD-DFT gradient, ASA, ECA, R-Raman, ABS, FL, XAS/XES, NRVS
   Peter Pinski           : DLPNO-MP2, DLPNO-MP2 Gradient
   Christoph Reimann      : Effective Core Potentials
   Marius Retegan         : Local ZFS, SOC
   Christoph Riplinger    : Optimizer, TS searches, QM/MM, DLPNO-CCSD(T), (RO)-DLPNO pert. Triples
   Tobias Risthaus        : Range-separated hybrids, TD-DFT gradient, RPA, STAB
   Michael Roemelt        : Original ROCIS implementation
   Masaaki Saitow         : Open-shell DLPNO-CCSD energy and density
   Barbara Sandhoefer     : DKH picture change effects
   Avijit Sen             : IP-ROCIS
   Kantharuban Sivalingam : CASSCF convergence, NEVPT2, FIC-MRCI
   Bernardo de Souza      : ESD, SOC TD-DFT
   Georgi Stoychev        : AutoAux, RI-MP2 NMR
   Willem Van den Heuvel  : Paramagnetic NMR
   Boris Wezisla          : Elementary symmetry handling
   Frank Wennmohs         : Technical directorship


 We gratefully acknowledge several colleagues who have allowed us to
 interface, adapt or use parts of their codes:
   Stefan Grimme, W. Hujo, H. Kruse,             : VdW corrections, initial TS optimization,
                  C. Bannwarth                     DFT functionals, gCP, sTDA/sTD-DF
   Ed Valeev, F. Pavosevic, A. Kumar             : LibInt (2-el integral package), F12 methods
   Garnet Chan, S. Sharma, J. Yang, R. Olivares  : DMRG
   Ulf Ekstrom                                   : XCFun DFT Library
   Mihaly Kallay                                 : mrcc  (arbitrary order and MRCC methods)
   Andreas Klamt, Michael Diedenhofen            : otool_cosmo (COSMO solvation model)
   Jiri Pittner, Ondrej Demel                    : Mk-CCSD
   Frank Weinhold                                : gennbo (NPA and NBO analysis)
   Christopher J. Cramer and Donald G. Truhlar   : smd solvation model
   Lars Goerigk                                  : TD-DFT with DH, B97 family of functionals
   V. Asgeirsson, H. Jonsson                     : NEB implementation
   FAccTs GmbH                                   : IRC, NEB, NEB-TS, Multilevel, MM, QM/MM, CI optimization
   S Lehtola, MJT Oliveira, MAL Marques          : LibXC Library


 Your calculation uses the libint2 library for the computation of 2-el integrals
 For citations please refer to: http://libint.valeyev.net

 Your ORCA version has been built with support for libXC version: 4.2.3
 For citations please refer to: https://tddft.org/programs/libxc/

 This ORCA versions uses:
   CBLAS   interface :  Fast vector & matrix operations
   LAPACKE interface :  Fast linear algebra routines
   SCALAPACK package :  Parallel linear algebra routines


Your calculation utilizes the geometrical counterpoise correction gCP
Please cite in your paper:
H.Kruse, S. Grimme J.Chem.Phys., 136, (2012), 154101 
   

Your calculation utilizes the atom-pairwise dispersion correction
with the Becke-Johnson damping scheme (D3BJ)
Cite in your paper:
S.Grimme, S.Ehrlich, L.Goerigk, J Comput Chem, (2011), 32, 1456–1465 
S.Grimme, J.Antony, S.Ehrlich and H.Krieg, J.Chem.Phys., 132, (2010), 154104 
   

Your calculation utilizes the SMD solvation module
Please cite in your paper:
A.V. Marenich, C.J. Cramer, D.G. Truhlar J. Phys. Chem. B, 113, (2009), 6378 

----- Orbital basis set information -----
Your calculation utilizes the basis: MINIX,
   a combination of small basis sets by S. Grimme (see manual for definitions).

================================================================================
                                        WARNINGS
                       Please study these warnings very carefully!
================================================================================


WARNING: your system is open-shell and RHF/RKS was chosen
  ===> : WILL SWITCH to UHF/UKS


INFO   : the flag for use of LIBINT has been found!

================================================================================
                                       INPUT FILE
================================================================================
NAME = YYKYKTLSK.inp
|  1> !HF-3c CPCM KDIIS SmallPrint
|  2> %PAL NPROCS 15 END
|  3> %maxcore 10000
|  4> %CPCM
|  5> SMD TRUE
|  6> SMDSOLVENT "WATER"
|  7> END
|  8> 
|  9> %scf
| 10> SCFmode Direct
| 11> maxiter 10000
| 12> 
| 13> end
| 14> 
| 15> %geom
| 16> 
| 17> Constraints
| 18> {C 2 C}
| 19> {C 25 C}
| 20> {C 46 C}
| 21> {C 68 C}
| 22> {C 89 C}
| 23> {C 111 C}
| 24> {C 125 C}
| 25> {C 144 C}
| 26> {C 155 C}
| 27> 
| 28> end
| 29> 
| 30> maxiter 10000
| 31> 
| 32> end
| 33> 
| 34> * xyz 0 2
| 35>    N        0.00000         0.00000         0.00000
| 36>    C        1.46166         0.00000         0.00000
| 37>    C        1.90245         0.00000         1.47367
| 38>    O        1.10446         0.00000         2.41047
| 39>    C        2.01963         1.22475         -0.74395
| 40>    H        1.40218         1.45682         -1.62200
| 41>    H        1.96111         2.11715         -0.10664
| 42>    C        3.43893         1.03289         -1.22728
| 43>    C        4.51374         1.63227         -0.55692
| 44>    H        4.34253         2.26223         0.31369
| 45>    C        5.82146         1.42397         -0.99655
| 46>    H        6.65507         1.88622         -0.47537
| 47>    C        6.05582         0.62841         -2.11173
| 48>    C        5.00256         0.03313         -2.79696
| 49>    H        5.17556         -0.58471         -3.67268
| 50>    C        3.69443         0.23427         -2.35261
| 51>    H        2.86970         -0.23087         -2.89252
| 52>    O        7.34890         0.45529         -2.50709
| 53>    H        7.35453         -0.07095         -3.32368
| 54>    H        1.78923         -0.93915         -0.46253
| 55>    H        -0.46692         0.27006         0.86191
| 56>    H        -0.34000         0.08381         -0.95801
| 57>    H        -0.34000         0.94706         -0.16699
| 58>    N        3.20625         -0.00000         1.78301
| 59>    C        3.62511         0.00022         3.18337
| 60>    C        5.16329         0.00016         3.18337
| 61>    O        5.83213         -0.00004         2.15040
| 62>    C        3.07221         -1.22438         3.93134
| 63>    H        2.05404         -1.45647         3.59145
| 64>    H        3.66599         -2.11684         3.69279
| 65>    C        3.01588         -1.03226         5.42959
| 66>    C        3.96611         -1.63154         6.26732
| 67>    H        4.75112         -2.26161         5.85391
| 68>    C        3.91967         -1.42301         7.64614
| 69>    H        4.65786         -1.88517         8.29552
| 70>    C        2.91845         -0.62731         8.19011
| 71>    C        1.96015         -0.03213         7.37729
| 72>    H        1.17077         0.58581         7.79388
| 73>    C        2.01099         -0.23351         5.99672
| 74>    H        1.25741         0.23156         5.36122
| 75>    O        2.91023         -0.45396         9.54223
| 76>    H        2.12953         0.07235         9.78154
| 77>    H        3.27589         0.93946         3.62959
| 78>    H        3.89819         -0.27021         1.08873
| 79>    N        5.83329         0.00033         4.34385
| 80>    C        7.29268         0.00005         4.34385
| 81>    C        7.72520         0.00035         5.81943
| 82>    O        6.92754         0.00074         6.75551
| 83>    C        7.82730         1.22232         3.58447
| 84>    C        9.34964         1.23094         3.41913
| 85>    C        9.80109         2.36922         2.49918
| 86>    C        11.32493         2.43575         2.40769
| 87>    N        11.73165         3.50168         1.50134
| 88>    H        7.69146         -0.85750         3.84336
| 89>    H        7.51315         2.10466         4.10185
| 90>    H        7.35665         1.22210         2.62353
| 91>    H        9.66204         0.29067         3.01515
| 92>    H        9.79437         1.35149         4.38483
| 93>    H        9.41655         3.29448         2.87457
| 94>    H        9.37745         2.20908         1.52976
| 95>    H        11.69816         1.49913         2.04946
| 96>    H        11.72448         2.61495         3.38399
| 97>    H        12.74877         3.57829         1.50127
| 98>    H        11.37309         4.39349         1.84267
| 99>    H        11.34453         3.32582         0.57419
|100>    H        5.49337         0.42942         5.20451
|101>    N        9.02728         0.00018         6.13596
|102>    C        9.43842         0.00068         7.53861
|103>    C        10.97657         0.00033         7.54708
|104>    O        11.65110         -0.00027         6.51781
|105>    C        8.88117         -1.22363         8.28384
|106>    H        7.86484         -1.45560         7.93839
|107>    H        9.47608         -2.11626         8.04879
|108>    C        8.81662         -1.03111         9.78170
|109>    C        9.76210         -1.63035         10.62481
|110>    H        10.54926         -2.26067         10.21589
|111>    C        9.70811         -1.42145         12.00330
|112>    H        10.44262         -1.88359         12.65685
|113>    C        8.70406         -0.62543         12.54154
|114>    C        7.75037         -0.03027         11.72330
|115>    H        6.95882         0.58793         12.13537
|116>    C        7.80878         -0.23202         10.34308
|117>    H        7.05880         0.23303         9.70332
|118>    O        8.68842         -0.45172         13.89354
|119>    H        7.90651         0.07480         14.12841
|120>    H        9.08693         0.94011         7.98266
|121>    H        9.72299         -0.27034         5.44557
|122>    N        11.64017         0.00067         8.71123
|123>    C        13.09954         0.00011         8.71927
|124>    C        13.52392         0.00071         10.19722
|125>    O        12.72112         0.00149         11.12889
|126>    C        13.63857         1.22208         7.96254
|127>    C        15.16179         1.23037         7.80559
|128>    C        15.61853         2.36833         6.88785
|129>    C        17.14286         2.43455         6.80474
|130>    N        17.55478         3.50017         5.90037
|131>    H        13.50090         -0.85764         8.22121
|132>    H        13.32174         2.10462         8.47795
|133>    H        13.17322         1.22171         6.99903
|134>    H        15.47624         0.28994         7.40358
|135>    H        15.60122         1.35109         8.77370
|136>    H        15.23210         3.29376         7.26088
|137>    H        15.20020         2.20802         5.91615
|138>    H        17.51788         1.49776         6.44881
|139>    H        17.53706         2.61392         7.78318
|140>    H        18.57189         3.57658         5.90589
|141>    H        17.19451         4.39214         6.23949
|142>    H        17.17274         3.32414         4.97115
|143>    H        11.29559         0.43004         9.56990
|144>    N        14.82424         0.00037         10.52092
|145>    C        15.22873         0.00116         11.92962
|146>    C        16.76531         0.00051         11.92883
|147>    O        17.43462         -0.00048         10.89686
|148>    C        14.82291         -1.08190         14.21601
|149>    C        14.67056         -1.21835         12.70441
|150>    O        13.27176         -1.42968         12.46166
|151>    H        14.32186         -1.91204         14.72669
|152>    H        14.34614         -0.16256         14.57384
|153>    H        15.87024         -1.07966         14.52668
|154>    H        15.18185         -2.13172         12.37861
|155>    H        14.86155         0.93570         12.37079
|156>    H        12.87130         -0.57863         12.18477
|157>    H        15.48552         -0.37516         9.84616
|158>    N        17.43590         0.00101         13.08896
|159>    C        18.89913         0.00017         13.08821
|160>    C        19.29871         0.00108         14.56924
|161>    O        18.48022         0.00226         15.48695
|162>    H        19.22796         -0.92756         12.60927
|163>    H        16.96947         0.47073         13.85935
|164>    C        19.41949         1.23370         12.33345
|165>    H        18.87369         1.29782         11.38125
|166>    H        19.14470         2.14443         12.88300
|167>    C        20.92044         1.29460         11.98129
|168>    H        21.01784         2.07847         11.21699
|169>    C        21.44936         0.00300         11.36117
|170>    H        22.45965         0.15399         10.96549
|171>    H        20.81222         -0.32138         10.53186
|172>    H        21.50280         -0.80880         12.09289
|173>    C        21.79748         1.73682         13.15141
|174>    H        22.81189         1.95873         12.80127
|175>    H        21.88440         0.96743         13.92045
|176>    H        21.40328         2.64647         13.61603
|177>    N        20.59365         0.00059         14.91383
|178>    C        20.97428         0.00168         16.32462
|179>    C        22.51217         0.00078         16.37922
|180>    O        23.22080         -0.00061         15.37341
|181>    H        20.62361         0.93897         16.77465
|182>    C        20.40930         -1.20337         17.08848
|183>    H        19.33276         -1.30233         16.92202
|184>    H        20.89022         -2.13539         16.76853
|185>    O        20.61687         -1.05955         18.49872
|186>    H        20.03767         -1.71669         18.92767
|187>    H        21.35116         -0.04261         14.23639
|188>    N        23.14058         0.00149         17.56273
|189>    C        24.59905         0.00041         17.61451
|190>    C        24.97895         0.00164         19.10452
|191>    O        24.14858         0.00321         20.01170
|192>    C        25.16098         1.22179         16.87364
|193>    C        26.68823         1.22944         16.76241
|194>    C        27.17269         2.36675         15.85818
|195>    C        28.69886         2.43237         15.82076
|196>    N        29.13809         3.49737         14.92859
|197>    H        25.01484         -0.85775         17.12914
|198>    H        24.82918         2.10471         17.37887
|199>    H        24.72472         1.22107         15.89661
|200>    H        27.01423         0.28868         16.37049
|201>    H        27.09849         1.35052         17.74319
|202>    H        26.77561         3.29252         16.21897
|203>    H        26.78362         2.20608         14.87446
|204>    H        29.08403         1.49526         15.47672
|205>    H        29.06363         2.61213         16.81048
|206>    H        30.15462         3.57341         14.96455
|207>    H        28.76816         4.38964         15.25630
|208>    H        28.78401         3.32098         13.98843
|209>    H        22.77059         0.43145         18.41046
|210>    O        26.29824         0.00091         19.39551
|211> *
|212> 
|213>                          ****END OF INPUT****
================================================================================

                       ****************************
                       * Single Point Calculation *
                       ****************************

---------------------------------
CARTESIAN COORDINATES (ANGSTROEM)
---------------------------------
  N      0.000000    0.000000    0.000000
  C      1.461660    0.000000    0.000000
  C      1.902450    0.000000    1.473670
  O      1.104460    0.000000    2.410470
  C      2.019630    1.224750   -0.743950
  H      1.402180    1.456820   -1.622000
  H      1.961110    2.117150   -0.106640
  C      3.438930    1.032890   -1.227280
  C      4.513740    1.632270   -0.556920
  H      4.342530    2.262230    0.313690
  C      5.821460    1.423970   -0.996550
  H      6.655070    1.886220   -0.475370
  C      6.055820    0.628410   -2.111730
  C      5.002560    0.033130   -2.796960
  H      5.175560   -0.584710   -3.672680
  C      3.694430    0.234270   -2.352610
  H      2.869700   -0.230870   -2.892520
  O      7.348900    0.455290   -2.507090
  H      7.354530   -0.070950   -3.323680
  H      1.789230   -0.939150   -0.462530
  H     -0.466920    0.270060    0.861910
  H     -0.340000    0.083810   -0.958010
  H     -0.340000    0.947060   -0.166990
  N      3.206250   -0.000000    1.783010
  C      3.625110    0.000220    3.183370
  C      5.163290    0.000160    3.183370
  O      5.832130   -0.000040    2.150400
  C      3.072210   -1.224380    3.931340
  H      2.054040   -1.456470    3.591450
  H      3.665990   -2.116840    3.692790
  C      3.015880   -1.032260    5.429590
  C      3.966110   -1.631540    6.267320
  H      4.751120   -2.261610    5.853910
  C      3.919670   -1.423010    7.646140
  H      4.657860   -1.885170    8.295520
  C      2.918450   -0.627310    8.190110
  C      1.960150   -0.032130    7.377290
  H      1.170770    0.585810    7.793880
  C      2.010990   -0.233510    5.996720
  H      1.257410    0.231560    5.361220
  O      2.910230   -0.453960    9.542230
  H      2.129530    0.072350    9.781540
  H      3.275890    0.939460    3.629590
  H      3.898190   -0.270210    1.088730
  N      5.833290    0.000330    4.343850
  C      7.292680    0.000050    4.343850
  C      7.725200    0.000350    5.819430
  O      6.927540    0.000740    6.755510
  C      7.827300    1.222320    3.584470
  C      9.349640    1.230940    3.419130
  C      9.801090    2.369220    2.499180
  C     11.324930    2.435750    2.407690
  N     11.731650    3.501680    1.501340
  H      7.691460   -0.857500    3.843360
  H      7.513150    2.104660    4.101850
  H      7.356650    1.222100    2.623530
  H      9.662040    0.290670    3.015150
  H      9.794370    1.351490    4.384830
  H      9.416550    3.294480    2.874570
  H      9.377450    2.209080    1.529760
  H     11.698160    1.499130    2.049460
  H     11.724480    2.614950    3.383990
  H     12.748770    3.578290    1.501270
  H     11.373090    4.393490    1.842670
  H     11.344530    3.325820    0.574190
  H      5.493370    0.429420    5.204510
  N      9.027280    0.000180    6.135960
  C      9.438420    0.000680    7.538610
  C     10.976570    0.000330    7.547080
  O     11.651100   -0.000270    6.517810
  C      8.881170   -1.223630    8.283840
  H      7.864840   -1.455600    7.938390
  H      9.476080   -2.116260    8.048790
  C      8.816620   -1.031110    9.781700
  C      9.762100   -1.630350   10.624810
  H     10.549260   -2.260670   10.215890
  C      9.708110   -1.421450   12.003300
  H     10.442620   -1.883590   12.656850
  C      8.704060   -0.625430   12.541540
  C      7.750370   -0.030270   11.723300
  H      6.958820    0.587930   12.135370
  C      7.808780   -0.232020   10.343080
  H      7.058800    0.233030    9.703320
  O      8.688420   -0.451720   13.893540
  H      7.906510    0.074800   14.128410
  H      9.086930    0.940110    7.982660
  H      9.722990   -0.270340    5.445570
  N     11.640170    0.000670    8.711230
  C     13.099540    0.000110    8.719270
  C     13.523920    0.000710   10.197220
  O     12.721120    0.001490   11.128890
  C     13.638570    1.222080    7.962540
  C     15.161790    1.230370    7.805590
  C     15.618530    2.368330    6.887850
  C     17.142860    2.434550    6.804740
  N     17.554780    3.500170    5.900370
  H     13.500900   -0.857640    8.221210
  H     13.321740    2.104620    8.477950
  H     13.173220    1.221710    6.999030
  H     15.476240    0.289940    7.403580
  H     15.601220    1.351090    8.773700
  H     15.232100    3.293760    7.260880
  H     15.200200    2.208020    5.916150
  H     17.517880    1.497760    6.448810
  H     17.537060    2.613920    7.783180
  H     18.571890    3.576580    5.905890
  H     17.194510    4.392140    6.239490
  H     17.172740    3.324140    4.971150
  H     11.295590    0.430040    9.569900
  N     14.824240    0.000370   10.520920
  C     15.228730    0.001160   11.929620
  C     16.765310    0.000510   11.928830
  O     17.434620   -0.000480   10.896860
  C     14.822910   -1.081900   14.216010
  C     14.670560   -1.218350   12.704410
  O     13.271760   -1.429680   12.461660
  H     14.321860   -1.912040   14.726690
  H     14.346140   -0.162560   14.573840
  H     15.870240   -1.079660   14.526680
  H     15.181850   -2.131720   12.378610
  H     14.861550    0.935700   12.370790
  H     12.871300   -0.578630   12.184770
  H     15.485520   -0.375160    9.846160
  N     17.435900    0.001010   13.088960
  C     18.899130    0.000170   13.088210
  C     19.298710    0.001080   14.569240
  O     18.480220    0.002260   15.486950
  H     19.227960   -0.927560   12.609270
  H     16.969470    0.470730   13.859350
  C     19.419490    1.233700   12.333450
  H     18.873690    1.297820   11.381250
  H     19.144700    2.144430   12.883000
  C     20.920440    1.294600   11.981290
  H     21.017840    2.078470   11.216990
  C     21.449360    0.003000   11.361170
  H     22.459650    0.153990   10.965490
  H     20.812220   -0.321380   10.531860
  H     21.502800   -0.808800   12.092890
  C     21.797480    1.736820   13.151410
  H     22.811890    1.958730   12.801270
  H     21.884400    0.967430   13.920450
  H     21.403280    2.646470   13.616030
  N     20.593650    0.000590   14.913830
  C     20.974280    0.001680   16.324620
  C     22.512170    0.000780   16.379220
  O     23.220800   -0.000610   15.373410
  H     20.623610    0.938970   16.774650
  C     20.409300   -1.203370   17.088480
  H     19.332760   -1.302330   16.922020
  H     20.890220   -2.135390   16.768530
  O     20.616870   -1.059550   18.498720
  H     20.037670   -1.716690   18.927670
  H     21.351160   -0.042610   14.236390
  N     23.140580    0.001490   17.562730
  C     24.599050    0.000410   17.614510
  C     24.978950    0.001640   19.104520
  O     24.148580    0.003210   20.011700
  C     25.160980    1.221790   16.873640
  C     26.688230    1.229440   16.762410
  C     27.172690    2.366750   15.858180
  C     28.698860    2.432370   15.820760
  N     29.138090    3.497370   14.928590
  H     25.014840   -0.857750   17.129140
  H     24.829180    2.104710   17.378870
  H     24.724720    1.221070   15.896610
  H     27.014230    0.288680   16.370490
  H     27.098490    1.350520   17.743190
  H     26.775610    3.292520   16.218970
  H     26.783620    2.206080   14.874460
  H     29.084030    1.495260   15.476720
  H     29.063630    2.612130   16.810480
  H     30.154620    3.573410   14.964550
  H     28.768160    4.389640   15.256300
  H     28.784010    3.320980   13.988430
  H     22.770590    0.431450   18.410460
  O     26.298240    0.000910   19.395510

----------------------------
CARTESIAN COORDINATES (A.U.)
----------------------------
  NO LB      ZA    FRAG     MASS         X           Y           Z
   0 N     7.0000    0    14.007    0.000000    0.000000    0.000000
   1 C     6.0000    0    12.011    2.762137    0.000000    0.000000
   2 C     6.0000    0    12.011    3.595109    0.000000    2.784833
   3 O     8.0000    0    15.999    2.087127    0.000000    4.555128
   4 C     6.0000    0    12.011    3.816548    2.314442   -1.405862
   5 H     1.0000    0     1.008    2.649736    2.752991   -3.065136
   6 H     1.0000    0     1.008    3.705961    4.000834   -0.201520
   7 C     6.0000    0    12.011    6.498636    1.951879   -2.319223
   8 C     6.0000    0    12.011    8.529732    3.084543   -1.052426
   9 H     1.0000    0     1.008    8.206192    4.274995    0.592788
  10 C     6.0000    0    12.011   11.000965    2.690913   -1.883207
  11 H     1.0000    0     1.008   12.576260    3.564439   -0.898319
  12 C     6.0000    0    12.011   11.443841    1.187523   -3.990591
  13 C     6.0000    0    12.011    9.453468    0.062607   -5.285488
  14 H     1.0000    0     1.008    9.780391   -1.104942   -6.940359
  15 C     6.0000    0    12.011    6.981461    0.442706   -4.445789
  16 H     1.0000    0     1.008    5.422947   -0.436281   -5.466071
  17 O     8.0000    0    15.999   13.887408    0.860373   -4.737713
  18 H     1.0000    0     1.008   13.898048   -0.134076   -6.280845
  19 H     1.0000    0     1.008    3.381155   -1.774736   -0.874055
  20 H     1.0000    0     1.008   -0.882351    0.510339    1.628774
  21 H     1.0000    0     1.008   -0.642507    0.158378   -1.810377
  22 H     1.0000    0     1.008   -0.642507    1.789684   -0.315565
  23 N     7.0000    0    14.007    6.058934   -0.000000    3.369401
  24 C     6.0000    0    12.011    6.850465    0.000416    6.015697
  25 C     6.0000    0    12.011    9.757204    0.000302    6.015697
  26 O     8.0000    0    15.999   11.021128   -0.000076    4.063667
  27 C     6.0000    0    12.011    5.805636   -2.313743    7.429156
  28 H     1.0000    0     1.008    3.881573   -2.752329    6.786857
  29 H     1.0000    0     1.008    6.927717   -4.000248    6.978362
  30 C     6.0000    0    12.011    5.699187   -1.950689   10.260438
  31 C     6.0000    0    12.011    7.494862   -3.083164   11.843518
  32 H     1.0000    0     1.008    8.978316   -4.273824   11.062287
  33 C     6.0000    0    12.011    7.407103   -2.689099   14.449111
  34 H     1.0000    0     1.008    8.802080   -3.562455   15.676261
  35 C     6.0000    0    12.011    5.515071   -1.185444   15.477065
  36 C     6.0000    0    12.011    3.704147   -0.060717   13.941058
  37 H     1.0000    0     1.008    2.212435    1.107020   14.728299
  38 C     6.0000    0    12.011    3.800220   -0.441270   11.332159
  39 H     1.0000    0     1.008    2.376161    0.437585   10.131238
  40 O     8.0000    0    15.999    5.499538   -0.857860   18.032201
  41 H     1.0000    0     1.008    4.024228    0.136722   18.484432
  42 H     1.0000    0     1.008    6.190535    1.775322    6.858931
  43 H     1.0000    0     1.008    7.366512   -0.510623    2.057402
  44 N     7.0000    0    14.007   11.023321    0.000624    8.208687
  45 C     6.0000    0    12.011   13.781168    0.000094    8.208687
  46 C     6.0000    0    12.011   14.598512    0.000661   10.997129
  47 O     8.0000    0    15.999   13.091153    0.001398   12.766064
  48 C     6.0000    0    12.011   14.791453    2.309850    6.773667
  49 C     6.0000    0    12.011   17.668259    2.326139    6.461219
  50 C     6.0000    0    12.011   18.521376    4.477177    4.722766
  51 C     6.0000    0    12.011   21.401016    4.602900    4.549875
  52 N     7.0000    0    14.007   22.169606    6.617216    2.837121
  53 H     1.0000    0     1.008   14.534753   -1.620440    7.262898
  54 H     1.0000    0     1.008   14.197796    3.977231    7.751373
  55 H     1.0000    0     1.008   13.902054    2.309434    4.957753
  56 H     1.0000    0     1.008   18.258609    0.549287    5.697808
  57 H     1.0000    0     1.008   18.508677    2.553946    8.286128
  58 H     1.0000    0     1.008   17.794701    6.225665    5.432150
  59 H     1.0000    0     1.008   17.720812    4.174556    2.890827
  60 H     1.0000    0     1.008   22.106319    2.832945    3.872918
  61 H     1.0000    0     1.008   22.156056    4.941539    6.394814
  62 H     1.0000    0     1.008   24.091684    6.761988    2.836989
  63 H     1.0000    0     1.008   21.492025    8.302493    3.482142
  64 H     1.0000    0     1.008   21.438055    6.284889    1.085062
  65 H     1.0000    0     1.008   10.380965    0.811486    9.835099
  66 N     7.0000    0    14.007   17.059087    0.000340   11.595284
  67 C     6.0000    0    12.011   17.836029    0.001285   14.245908
  68 C     6.0000    0    12.011   20.742711    0.000624   14.261914
  69 O     8.0000    0    15.999   22.017388   -0.000510   12.316876
  70 C     6.0000    0    12.011   16.782979   -2.312326   15.654189
  71 H     1.0000    0     1.008   14.862394   -2.750685   15.001383
  72 H     1.0000    0     1.008   17.907196   -3.999152   15.210009
  73 C     6.0000    0    12.011   16.660997   -1.948516   18.484734
  74 C     6.0000    0    12.011   18.447695   -3.080915   20.077981
  75 H     1.0000    0     1.008   19.935212   -4.272047   19.305234
  76 C     6.0000    0    12.011   18.345669   -2.686151   22.682950
  77 H     1.0000    0     1.008   19.733692   -3.559469   23.917980
  78 C     6.0000    0    12.011   16.448290   -1.181891   23.700076
  79 C     6.0000    0    12.011   14.646077   -0.057202   22.153826
  80 H     1.0000    0     1.008   13.150264    1.111027   22.932526
  81 C     6.0000    0    12.011   14.756456   -0.438454   19.545589
  82 H     1.0000    0     1.008   13.339199    0.440363   18.336617
  83 O     8.0000    0    15.999   16.418734   -0.853627   26.254986
  84 H     1.0000    0     1.008   14.941139    0.141352   26.698826
  85 H     1.0000    0     1.008   17.171809    1.776550   15.085041
  86 H     1.0000    0     1.008   18.373788   -0.510869   10.290636
  87 N     7.0000    0    14.007   21.996733    0.001266   16.461839
  88 C     6.0000    0    12.011   24.754543    0.000208   16.477032
  89 C     6.0000    0    12.011   25.556505    0.001342   19.269953
  90 O     8.0000    0    15.999   24.039433    0.002816   21.030554
  91 C     6.0000    0    12.011   25.773162    2.309397   15.047020
  92 C     6.0000    0    12.011   28.651631    2.325062   14.750427
  93 C     6.0000    0    12.011   29.514744    4.475495   13.016150
  94 C     6.0000    0    12.011   32.395311    4.600633   12.859095
  95 N     7.0000    0    14.007   33.173727    6.614363   11.150083
  96 H     1.0000    0     1.008   25.513004   -1.620705   15.535835
  97 H     1.0000    0     1.008   25.174440    3.977155   16.021004
  98 H     1.0000    0     1.008   24.893778    2.308697   13.226250
  99 H     1.0000    0     1.008   29.245855    0.547907   13.990739
 100 H     1.0000    0     1.008   29.482033    2.553190   16.579890
 101 H     1.0000    0     1.008   28.784497    6.224304   13.721075
 102 H     1.0000    0     1.008   28.724215    4.172553   11.179903
 103 H     1.0000    0     1.008   33.103996    2.830356   12.186485
 104 H     1.0000    0     1.008   33.140241    4.939593   14.708079
 105 H     1.0000    0     1.008   35.095786    6.758757   11.160515
 106 H     1.0000    0     1.008   32.492915    8.299942   11.790927
 107 H     1.0000    0     1.008   32.451776    6.281714    9.394112
 108 H     1.0000    0     1.008   21.345572    0.812658   18.084490
 109 N     7.0000    0    14.007   28.013754    0.000699   19.881657
 110 C     6.0000    0    12.011   28.778129    0.002192   22.543715
 111 C     6.0000    0    12.011   31.681844    0.000964   22.542222
 112 O     8.0000    0    15.999   32.946657   -0.000907   20.592081
 113 C     6.0000    0    12.011   28.011240   -2.044495   26.864366
 114 C     6.0000    0    12.011   27.723341   -2.302348   24.007856
 115 O     8.0000    0    15.999   25.079992   -2.701704   23.549125
 116 H     1.0000    0     1.008   27.064393   -3.613232   27.829411
 117 H     1.0000    0     1.008   27.110276   -0.307194   27.540566
 118 H     1.0000    0     1.008   29.990407   -2.040262   27.451447
 119 H     1.0000    0     1.008   28.689539   -4.028367   23.392183
 120 H     1.0000    0     1.008   28.084259    1.768217   23.377405
 121 H     1.0000    0     1.008   24.323232   -1.093452   23.025878
 122 H     1.0000    0     1.008   29.263392   -0.708950   18.606546
 123 N     7.0000    0    14.007   32.949076    0.001909   24.734550
 124 C     6.0000    0    12.011   35.714180    0.000321   24.733132
 125 C     6.0000    0    12.011   36.469277    0.002041   27.531874
 126 O     8.0000    0    15.999   34.922555    0.004271   29.266094
 127 H     1.0000    0     1.008   36.335579   -1.752834   23.828067
 128 H     1.0000    0     1.008   32.067651    0.889551   26.190376
 129 C     6.0000    0    12.011   36.697518    2.331355   23.306843
 130 H     1.0000    0     1.008   35.666105    2.452524   21.507446
 131 H     1.0000    0     1.008   36.178240    4.052385   24.345342
 132 C     6.0000    0    12.011   39.533902    2.446439   22.641357
 133 H     1.0000    0     1.008   39.717962    3.927739   21.197039
 134 C     6.0000    0    12.011   40.533416    0.005669   21.469500
 135 H     1.0000    0     1.008   42.442588    0.290999   20.721773
 136 H     1.0000    0     1.008   39.329396   -0.607320   19.902331
 137 H     1.0000    0     1.008   40.634403   -1.528410   22.852250
 138 C     6.0000    0    12.011   41.191268    3.282114   24.852563
 139 H     1.0000    0     1.008   43.108225    3.701463   24.190894
 140 H     1.0000    0     1.008   41.355523    1.828178   26.305838
 141 H     1.0000    0     1.008   40.446338    5.001104   25.730568
 142 N     7.0000    0    14.007   38.916359    0.001115   28.183054
 143 C     6.0000    0    12.011   39.635645    0.003175   30.849061
 144 C     6.0000    0    12.011   42.541836    0.001474   30.952240
 145 O     8.0000    0    15.999   43.880953   -0.001153   29.051535
 146 H     1.0000    0     1.008   38.972975    1.774396   31.699494
 147 C     6.0000    0    12.011   38.567988   -2.274040   32.292547
 148 H     1.0000    0     1.008   36.533622   -2.461047   31.977983
 149 H     1.0000    0     1.008   39.476795   -4.035302   31.687929
 150 O     8.0000    0    15.999   38.960238   -2.002259   34.957515
 151 H     1.0000    0     1.008   37.865709   -3.244074   35.768113
 152 H     1.0000    0     1.008   40.347845   -0.080521   26.902878
 153 N     7.0000    0    14.007   43.729359    0.002816   33.188750
 154 C     6.0000    0    12.011   46.485468    0.000775   33.286600
 155 C     6.0000    0    12.011   47.203375    0.003099   36.102311
 156 O     8.0000    0    15.999   45.634203    0.006066   37.816632
 157 C     6.0000    0    12.011   47.547361    2.308848   31.886558
 158 C     6.0000    0    12.011   50.433446    2.323305   31.676364
 159 C     6.0000    0    12.011   51.348942    4.472509   29.967617
 160 C     6.0000    0    12.011   54.232986    4.596513   29.896904
 161 N     7.0000    0    14.007   55.063010    6.609071   28.210947
 162 H     1.0000    0     1.008   47.271197   -1.620913   32.369384
 163 H     1.0000    0     1.008   46.920350    3.977325   32.841305
 164 H     1.0000    0     1.008   46.722950    2.307488   30.040239
 165 H     1.0000    0     1.008   51.049496    0.545526   30.935743
 166 H     1.0000    0     1.008   51.208725    2.552113   33.529770
 167 H     1.0000    0     1.008   50.598570    6.221961   30.649411
 168 H     1.0000    0     1.008   50.613707    4.168887   28.108656
 169 H     1.0000    0     1.008   54.960852    2.825632   29.246762
 170 H     1.0000    0     1.008   54.922301    4.936210   31.767203
 171 H     1.0000    0     1.008   56.983973    6.752766   28.278901
 172 H     1.0000    0     1.008   54.363944    8.295217   28.830229
 173 H     1.0000    0     1.008   54.393896    6.275743   26.434302
 174 H     1.0000    0     1.008   43.030179    0.815322   34.790727
 175 O     8.0000    0    15.999   49.696471    0.001720   36.652202

--------------------------------
INTERNAL COORDINATES (ANGSTROEM)
--------------------------------
 N      0   0   0     0.000000000000     0.00000000     0.00000000
 C      1   0   0     1.461660000000     0.00000000     0.00000000
 C      2   1   0     1.538180448777   106.65247020     0.00000000
 O      3   2   1     1.230602405369   122.92233057     0.00000000
 C      2   1   3     1.537792146520   111.27461287   238.72424526
 H      5   2   1     1.098213453706   110.55418826   322.22000738
 H      5   2   1     1.098165008776   110.31086381    78.16494564
 C      5   2   1     1.511565624940   113.22177794   201.65914571
 C      8   5   2     1.401376269993   120.85762834   256.41721681
 H      9   8   5     1.088174727606   120.64062890   358.85410193
 C      9   8   5     1.395275967434   120.28245868   178.62969638
 H     11   9   8     1.086374376999   120.29809405   180.17378908
 C     11   9   8     1.389772195577   119.75809185     0.60194841
 C     13  11   9     1.390415426734   120.84979748   359.89643179
 H     14  13  11     1.085606182738   121.36482051   179.60837478
 C     14  13  11     1.396104694856   119.42232900   359.70200229
 H     16  14  13     1.089971376046   119.32964793   179.83374537
 O     13  11   9     1.363207963005   117.73434450   179.84475842
 H     18  13  11     0.971483125227   108.54619952   183.56893365
 H      2   1   3     1.096922434952   107.37512031   116.22017872
 H      1   2   3     1.016777034605   117.33651104    17.39720215
 H      1   2   3     1.020003566758   109.47114980   175.00029763
 H      1   2   3     1.020004070433   109.47113980    99.99986914
 N      3   2   1     1.339994655064   119.99968832   180.00000000
 C     24   3   2     1.461660657471   119.99960466   179.99004213
 C     25  24   3     1.538180001170   106.65238635   180.00006664
 O     26  25  24     1.230599043759   122.92274126     0.00000000
 C     25  24   3     1.537791497863   111.27482378    58.72431618
 H     28  25  24     1.098208144707   110.55436025   322.21990716
 H     28  25  24     1.098164670029   110.31050267    78.16480447
 C     28  25  24     1.511567473122   113.22178824   201.65920476
 C     31  28  25     1.401379721632   120.85728651   256.41700766
 H     32  31  28     1.088180468994   120.64093910   358.85383574
 C     32  31  28     1.395272742836   120.28221697   178.63011399
 H     34  32  31     1.086375039340   120.29845451   180.17431251
 C     34  32  31     1.389778161902   119.75808488     0.60139356
 C     36  34  32     1.390415216689   120.85001567   359.89714182
 H     37  36  34     1.085595622734   121.36482182   179.60845837
 C     37  36  34     1.396106061480   119.42207022   359.70177431
 H     39  37  36     1.089969344202   119.32957470   179.83450930
 O     36  34  32     1.363211753654   117.73434321   179.84506260
 H     41  36  34     0.971475157788   108.54627168   183.56899255
 H     25  24   3     1.096922364801   107.37530124   296.21999224
 H     24   3   2     1.016768963974   120.29910280   342.07344093
 N     26  25  24     1.340005171371   119.99987199   179.99998613
 C     45  26  25     1.459390026861   119.99987012   179.98988728
 C     46  45  26     1.537663804868   106.33684148   179.99986900
 O     47  46  45     1.229840393750   123.22791025     0.00000000
 C     46  45  26     1.535063673500   110.37233385    58.16476351
 C     49  46  45     1.531316654255   113.83634225   185.56127950
 C     50  49  46     1.531599315552   111.22714370   172.43814727
 C     51  50  49     1.528033051540   111.23968658   176.22997645
 N     52  51  50     1.457085531395   110.33213292   178.51620360
 H     46  45  26     1.070003612611   111.89112696   300.28598880
 H     49  46  45     1.069998206774   108.36913769    63.03218086
 H     49  46  45     1.070008016091   106.91252758   307.10863714
 H     50  49  46     1.070000595000   109.03037895    51.09921882
 H     50  49  46     1.069996993173   108.44453426   293.05919513
 H     51  50  49     1.069997537988   109.02665499    54.77142174
 H     51  50  49     1.069995703543   108.43664211   297.70487532
 H     52  51  50     1.069993640261   109.25610486    58.01295406
 H     52  51  50     1.070006790866   108.96831317   299.29219516
 H     53  52  51     1.020001074215   109.47113010   175.98128725
 H     53  52  51     1.019998293430   109.47125387    59.52580283
 H     53  52  51     1.019997919851   109.47164736   300.40209989
 H     45  26  25     1.019999740245   124.34441688   329.38184070
 N     47  46  45     1.340001341865   120.00016527   179.99988465
 C     67  47  46     1.461664589466   120.00005523   179.99027627
 C     68  67  47     1.538173360158   106.65223336   180.00023891
 O     69  68  67     1.230604653737   122.92324758     0.00000000
 C     68  67  47     1.537800471940   111.27481894    58.72440010
 H     71  68  67     1.098213300001   110.55331140   322.21996795
 H     71  68  67     1.098159700362   110.31042481    78.16457126
 C     71  68  67     1.511560528891   113.22164444   201.65943733
 C     74  71  68     1.401376280697   120.85738550   256.41690090
 H     75  74  71     1.088181848038   120.64054316   358.85435675
 C     75  74  71     1.395273740239   120.28256919   178.62978264
 H     77  75  74     1.086372828361   120.29817192   180.17389982
 C     77  75  74     1.389772118191   119.75803380     0.60218027
 C     79  77  75     1.390416031014   120.85007723   359.89596557
 H     80  79  77     1.085598603260   121.36530007   179.60884911
 C     80  79  77     1.396109608519   119.42180190   359.70263817
 H     82  80  79     1.089969889722   119.32925856   179.83409594
 O     79  77  75     1.363203496804   117.73476316   179.84497981
 H     84  79  77     0.971478499711   108.54659907   183.56868572
 H     68  67  47     1.096929508902   107.37528101   296.21971805
 H     67  47  46     1.016775209474   120.29893083   342.07389036
 N     69  68  67     1.340003842569   119.99991863   180.00004328
 C     88  69  68     1.459392254365   120.00006405   179.98966722
 C     89  88  69     1.537671924339   106.33658200   179.99973840
 O     90  89  88     1.229836345739   123.22829705     0.00000000
 C     89  88  69     1.535058407586   110.37234578    58.16493569
 C     92  89  88     1.531307021795   113.83645280   185.56112520
 C     93  92  89     1.531604092708   111.22751788   172.43809999
 C     94  93  92     1.528029551219   111.24014106   176.22997951
 N     95  94  93     1.457089279248   110.33254057   178.51609289
 H     89  88  69     1.069994708258   111.89100750   300.28585176
 H     92  89  88     1.070002602146   108.36954769    63.03167887
 H     92  89  88     1.070001065186   106.91256810   307.10897149
 H     93  92  89     1.069999732477   109.03081112    51.09902886
 H     93  92  89     1.070004212795   108.44466920   293.05879333
 H     94  93  92     1.070000098458   109.02637570    54.77117853
 H     94  93  92     1.070000081776   108.43621156   297.70526260
 H     95  94  93     1.070000780093   109.25592092    58.01284134
 H     95  94  93     1.070005640406   108.96837419   299.29247235
 H     96  95  94     1.019991034568   109.47096927   175.98133219
 H     96  95  94     1.020003592249   109.47108157    59.52552923
 H     96  95  94     1.019995554353   109.47119979   300.40220041
 H     88  69  68     1.020003991267   124.34419690   329.38237389
 N     90  89  88     1.340005189542   119.99993043   179.99976936
 C    110  90  89     1.465622214010   119.99971945   179.99015430
 C    111 110  90     1.536580340561   105.99126017   180.00055369
 O    112 111 110     1.230015827988   122.99590123     0.00000000
 C    111 110  90     2.562281808877   144.46201560    46.75183020
 C    114 111 110     1.525373293656    33.83563527    19.97139099
 O    115 114 111     1.435349912530   106.14682758   236.31103363
 H    114 111 110     1.095891228407   143.94227172    10.36773690
 H    114 111 110     1.095690639460    90.32493024   250.95702127
 H    114 111 110     1.092438096827    95.79977620   142.00283917
 H    115 114 111     1.096269976329   108.81137044   122.21196108
 H    111 110  90     1.096730200596   107.13937594   296.96606040
 H    116 115 114     0.980470492264   108.54196917    99.77185872
 H    110  90  89     1.016668617053   118.09545058   335.28943500
 N    112 111 110     1.339997319027   119.99972965   180.00039315
 C    124 112 111     1.463230433322   119.99981304   179.99000623
 C    125 124 112     1.533986592314   105.06943249   179.99962050
 O    126 125 124     1.229682445431   123.17195926     0.00000000
 H    125 124 112     1.094621233761   107.52464538   297.34522826
 H    124 112 111     1.015723670788   115.27864995   329.29351760
 C    125 124 112     1.536890838056   109.77762926    58.59765709
 H    130 125 124     1.099406137149   107.70175236   311.92070304
 H    130 125 124     1.098609976061   109.57311729    65.74599540
 C    130 125 124     1.542911655961   118.23836857   191.35223918
 H    133 130 125     1.099133034214   105.84689823   164.00546362
 C    133 130 125     1.527264135898   113.34047816    47.20291359
 H    135 133 130     1.095466351195   110.45586796   169.76593999
 H    135 133 130     1.094954263931   110.88817105    50.45637996
 H    135 133 130     1.094207124817   111.88951064   289.33734966
 C    133 130 125     1.527723307540   113.27083725   279.70056417
 H    139 133 130     1.095842012244   110.20097274   191.44053515
 H    139 133 130     1.091301324154   112.42002769    72.03906730
 H    139 133 130     1.094864606652   111.02837239   310.42990852
 N    126 125 124     1.340004519321   120.00017135   179.99939840
 C    143 126 125     1.461235370876   120.00018934   179.98989618
 C    144 143 126     1.538859195021   107.13214560   180.00062851
 O    145 144 143     1.230370742947   123.13278468     0.00000000
 H    144 143 126     1.097273436250   108.26222948   295.98799860
 C    144 143 126     1.534545536144   112.58800039    58.35148142
 H    148 144 143     1.093819173721   110.95602389   308.84014340
 H    148 144 143     1.096500492157   111.14680223    69.13698758
 O    148 144 143     1.432671056070   110.96570053   189.33716502
 H    151 148 144     0.975348000511   106.21447583   165.15527525
 H    143 126 125     1.017159079840   123.25953454   357.15373617
 N    145 144 143     1.339998340409   120.00032335   180.00065166
 C    154 145 144     1.459389281755   120.00030130   179.98973291
 C    155 154 145     1.537678549958   106.33692484   179.99934707
 O    156 155 154     1.229834279161   123.22753772     0.00000000
 C    155 154 145     1.535064424120   110.37233054    58.16451493
 C    158 155 154     1.531314206131   113.83617988   185.56142764
 C    159 158 155     1.531602892593   111.22693231   172.43801782
 C    160 159 158     1.528038320756   111.23959259   176.22998142
 N    161 160 159     1.457091384162   110.33184988   178.51633522
 H    155 154 145     1.070001844204   111.89101611   300.28584585
 H    158 155 154     1.069998280045   108.36927011    63.03215750
 H    158 155 154     1.070005106016   106.91236321   307.10864037
 H    159 158 155     1.070003114014   109.03080812    51.09906928
 H    159 158 155     1.070001421681   108.44460060   293.05826051
 H    160 159 158     1.069996281956   109.02724671    54.77119842
 H    160 159 158     1.069997828129   108.43682469   297.70469932
 H    161 160 159     1.069997477847   109.25640133    58.01267353
 H    161 160 159     1.070007705066   108.96862858   299.29156567
 H    162 161 160     1.020004139256   109.47030298   175.98159232
 H    162 161 160     1.019994020522   109.47130237    59.52573888
 H    162 161 160     1.019993580421   109.47108513   300.40140321
 H    154 145 144     1.020002134606   124.34409432   329.38102844
 O    156 155 154     1.351000302406   116.74193899   179.99985905

---------------------------
INTERNAL COORDINATES (A.U.)
---------------------------
 N      0   0   0     0.000000000000     0.00000000     0.00000000
 C      1   0   0     2.762137100907     0.00000000     0.00000000
 C      2   1   0     2.906739792741   106.65247020     0.00000000
 O      3   2   1     2.325501525892   122.92233057     0.00000000
 C      2   1   3     2.906006007819   111.27461287   238.72424526
 H      5   2   1     2.075322664091   110.55418826   322.22000738
 H      5   2   1     2.075231116442   110.31086381    78.16494564
 C      5   2   1     2.856445064586   113.22177794   201.65914571
 C      8   5   2     2.648217360863   120.85762834   256.41721681
 H      9   8   5     2.056352221029   120.64062890   358.85410193
 C      9   8   5     2.636689459693   120.28245868   178.62969638
 H     11   9   8     2.052950051437   120.29809405   180.17378908
 C     11   9   8     2.626288838180   119.75809185     0.60194841
 C     13  11   9     2.627504368907   120.84979748   359.89643179
 H     14  13  11     2.051498374667   121.36482051   179.60837478
 C     14  13  11     2.638255527560   119.42232900   359.70200229
 H     16  14  13     2.059747394541   119.32964793   179.83374537
 O     13  11   9     2.576089713660   117.73434450   179.84475842
 H     18  13  11     1.835837050404   108.54619952   183.56893365
 H      2   1   3     2.072882992212   107.37512031   116.22017872
 H      1   2   3     1.921430134664   117.33651104    17.39720215
 H      1   2   3     1.927527396796   109.47114980   175.00029763
 H      1   2   3     1.927528348603   109.47113980    99.99986914
 N      3   2   1     2.532222918989   119.99968832   180.00000000
 C     24   3   2     2.762138343348   119.99960466   179.99004213
 C     25  24   3     2.906738946886   106.65238635   180.00006664
 O     26  25  24     2.325495173369   122.92274126     0.00000000
 C     25  24   3     2.906004782034   111.27482378    58.72431618
 H     28  25  24     2.075312631537   110.55436025   322.21990716
 H     28  25  24     2.075230476303   110.31050267    78.16480447
 C     28  25  24     2.856448557144   113.22178824   201.65920476
 C     31  28  25     2.648223883514   120.85728651   256.41700766
 H     32  31  28     2.056363070681   120.64093910   358.85383574
 C     32  31  28     2.636683366084   120.28221697   178.63011399
 H     34  32  31     2.052951303080   120.29845451   180.17431251
 C     34  32  31     2.626300112899   119.75808488     0.60139356
 C     36  34  32     2.627503971979   120.85001567   359.89714182
 H     37  36  34     2.051478419152   121.36482182   179.60845837
 C     37  36  34     2.638258110104   119.42207022   359.70177431
 H     39  37  36     2.059743554911   119.32957470   179.83450930
 O     36  34  32     2.576096876948   117.73434321   179.84506260
 H     41  36  34     1.835821994128   108.54627168   183.56899255
 H     25  24   3     2.072882859647   107.37530124   296.21999224
 H     24   3   2     1.921414883381   120.29910280   342.07344093
 N     26  25  24     2.532242791929   119.99987199   179.99998613
 C     45  26  25     2.757847473342   119.99987012   179.98988728
 C     46  45  26     2.905763477243   106.33684148   179.99986900
 O     47  46  45     2.324061532622   123.22791025     0.00000000
 C     46  45  26     2.900849941047   110.37233385    58.16476351
 C     49  46  45     2.893769100855   113.83634225   185.56127950
 C     50  49  46     2.894303253295   111.22714370   172.43814727
 C     51  50  49     2.887563990991   111.23968658   176.22997645
 N     52  51  50     2.753492608035   110.33213292   178.51620360
 H     46  45  26     2.022013790141   111.89112696   300.28598880
 H     49  46  45     2.022003574590   108.36913769    63.03218086
 H     49  46  45     2.022022111513   106.91252758   307.10863714
 H     50  49  46     2.022008087682   109.03037895    51.09921882
 H     50  49  46     2.022001281217   108.44453426   293.05919513
 H     51  50  49     2.022002310767   109.02665499    54.77142174
 H     51  50  49     2.021998844168   108.43664211   297.70487532
 H     52  51  50     2.021994945132   109.25610486    58.01295406
 H     52  51  50     2.022019796173   108.96831317   299.29219516
 H     53  52  51     1.927522686572   109.47113010   175.98128725
 H     53  52  51     1.927517431650   109.47125387    59.52580283
 H     53  52  51     1.927516725687   109.47164736   300.40209989
 H     45  26  25     1.927520165734   124.34441688   329.38184070
 N     47  46  45     2.532235555212   120.00016527   179.99988465
 C     67  47  46     2.762145773742   120.00005523   179.99027627
 C     68  67  47     2.906726397192   106.65223336   180.00023891
 O     69  68  67     2.325505774693   122.92324758     0.00000000
 C     68  67  47     2.906021740582   111.27481894    58.72440010
 H     71  68  67     2.075322373633   110.55331140   322.21996795
 H     71  68  67     2.075221084994   110.31042481    78.16457126
 C     71  68  67     2.856435434448   113.22164444   201.65943733
 C     74  71  68     2.648217381090   120.85738550   256.41690090
 H     75  74  71     2.056365676697   120.64054316   358.85435675
 C     75  74  71     2.636685250903   120.28256919   178.62978264
 H     77  75  74     2.052947124935   120.29817192   180.17389982
 C     77  75  74     2.626288691940   119.75803380     0.60218027
 C     79  77  75     2.627505510830   120.85007723   359.89596557
 H     80  79  77     2.051484051529   121.36530007   179.60884911
 C     80  79  77     2.638264813038   119.42180190   359.70263817
 H     82  80  79     2.059744585794   119.32925856   179.83409594
 O     79  77  75     2.576081273764   117.73476316   179.84497981
 H     84  79  77     1.835828309446   108.54659907   183.56868572
 H     68  67  47     2.072896360042   107.37528101   296.21971805
 H     67  47  46     1.921426685665   120.29893083   342.07389036
 N     69  68  67     2.532240280858   119.99991863   180.00004328
 C     88  69  68     2.757851682715   120.00006405   179.98966722
 C     89  88  69     2.905778820820   106.33658200   179.99973840
 O     90  89  88     2.324053882989   123.22829705     0.00000000
 C     89  88  69     2.900839989911   110.37234578    58.16493569
 C     92  89  88     2.893750898144   113.83645280   185.56112520
 C     93  92  89     2.894312280811   111.22751788   172.43809999
 C     94  93  92     2.887557376343   111.24014106   176.22997951
 N     95  94  93     2.753499690452   110.33254057   178.51609289
 H     89  88  69     2.021996963352   111.89100750   300.28585176
 H     92  89  88     2.022011880640   108.36954769    63.03167887
 H     92  89  88     2.022008976206   106.91256810   307.10897149
 H     93  92  89     2.022006457750   109.03081112    51.09902886
 H     93  92  89     2.022014924325   108.44466920   293.05879333
 H     94  93  92     2.022007149354   109.02637570    54.77117853
 H     94  93  92     2.022007117829   108.43621156   297.70526260
 H     95  94  93     2.022008437458   109.25592092    58.01284134
 H     95  94  93     2.022017622118   108.96837419   299.29247235
 H     96  95  94     1.927503714389   109.47096927   175.98133219
 H     96  95  94     1.927527444966   109.47108157    59.52552923
 H     96  95  94     1.927512255544   109.47119979   300.40220041
 H     88  69  68     1.927528199001   124.34419690   329.38237389
 N     90  89  88     2.532242826268   119.99993043   179.99976936
 C    110  90  89     2.769624600270   119.99971945   179.99015430
 C    111 110  90     2.903716026429   105.99126017   180.00055369
 O    112 111 110     2.324393055285   122.99590123     0.00000000
 C    111 110  90     4.842010896705   144.46201560    46.75183020
 C    114 111 110     2.882537777008    33.83563527    19.97139099
 O    115 114 111     2.712418241030   106.14682758   236.31103363
 H    114 111 110     2.070934294256   143.94227172    10.36773690
 H    114 111 110     2.070555236080    90.32493024   250.95702127
 H    114 111 110     2.064408821266    95.79977620   142.00283917
 H    115 114 111     2.071650024102   108.81137044   122.21196108
 H    111 110  90     2.072519721928   107.13937594   296.96606040
 H    116 115 114     1.852820712770   108.54196917    99.77185872
 H    110  90  89     1.921225255182   118.09545058   335.28943500
 N    112 111 110     2.532227953150   119.99972965   180.00039315
 C    124 112 111     2.765104789798   119.99981304   179.99000623
 C    125 124 112     2.898814552581   105.06943249   179.99962050
 O    126 125 124     2.323763053554   123.17195926     0.00000000
 H    125 124 112     2.068534352183   107.52464538   297.34522826
 H    124 112 111     1.919439565531   115.27864995   329.29351760
 C    125 124 112     2.904302781658   109.77762926    58.59765709
 H    130 125 124     2.077576509163   107.70175236   311.92070304
 H    130 125 124     2.076071982748   109.57311729    65.74599540
 C    130 125 124     2.915680478601   118.23836857   191.35223918
 H    133 130 125     2.077060419410   105.84689823   164.00546362
 C    133 130 125     2.886110951007   113.34047816    47.20291359
 H    135 133 130     2.070131392684   110.45586796   169.76593999
 H    135 133 130     2.069163687998   110.88817105    50.45637996
 H    135 133 130     2.067751799689   111.88951064   289.33734966
 C    133 130 125     2.886978659658   113.27083725   279.70056417
 H    139 133 130     2.070841289187   110.20097274   191.44053515
 H    139 133 130     2.062260632236   112.42002769    72.03906730
 H    139 133 130     2.068994260296   111.02837239   310.42990852
 N    126 125 124     2.532241559733   120.00017135   179.99939840
 C    143 126 125     2.761334668155   120.00018934   179.98989618
 C    144 143 126     2.908022437256   107.13214560   180.00062851
 O    145 144 143     2.325063747359   123.13278468     0.00000000
 H    144 143 126     2.073546288539   108.26222948   295.98799860
 C    144 143 126     2.899870803344   112.58800039    58.35148142
 H    148 144 143     2.067018678365   110.95602389   308.84014340
 H    148 144 143     2.072085635886   111.14680223    69.13698758
 O    148 144 143     2.707355935968   110.96570053   189.33716502
 H    151 148 144     1.843140606233   106.21447583   165.15527525
 H    143 126 125     1.922152095528   123.25953454   357.15373617
 N    145 144 143     2.532229883283   120.00032335   180.00065166
 C    154 145 144     2.757846065296   120.00030130   179.98973291
 C    155 154 145     2.905791341425   106.33692484   179.99934707
 O    156 155 154     2.324049977723   123.22753772     0.00000000
 C    155 154 145     2.900851359513   110.37233054    58.16451493
 C    158 155 154     2.893764474571   113.83617988   185.56142764
 C    159 158 155     2.894310012923   111.22693231   172.43801782
 C    160 159 158     2.887573948366   111.23959259   176.22998142
 N    161 160 159     2.753503668163   110.33184988   178.51633522
 H    155 154 145     2.022010448336   111.89101611   300.28584585
 H    158 155 154     2.022003713052   108.36927011    63.03215750
 H    158 155 154     2.022016612267   106.91236321   307.10864037
 H    159 158 155     2.022012847930   109.03080812    51.09906928
 H    159 158 155     2.022009649884   108.44460060   293.05826051
 H    160 159 158     2.021999937211   109.02724671    54.77119842
 H    160 159 158     2.022002859054   108.43682469   297.70469932
 H    161 160 159     2.022002197118   109.25640133    58.01267353
 H    161 160 159     2.022021523760   108.96862858   299.29156567
 H    162 161 160     1.927528478661   109.47030298   175.98159232
 H    162 161 160     1.927509357023   109.47130237    59.52573888
 H    162 161 160     1.927508525353   109.47108513   300.40140321
 H    154 145 144     1.927524690420   124.34409432   329.38102844
 O    156 155 154     2.553020578391   116.74193899   179.99985905

---------------------
BASIS SET INFORMATION
---------------------
There are 4 groups of distinct atoms

 Group   1 Type N   : 6s3p contracted to 2s1p pattern {33/3}
 Group   2 Type C   : 6s3p contracted to 2s1p pattern {33/3}
 Group   3 Type O   : 6s3p contracted to 2s1p pattern {33/3}
 Group   4 Type H   : 3s contracted to 1s pattern {3}

Atom   0N    basis set group =>   1
Atom   1C    basis set group =>   2
Atom   2C    basis set group =>   2
Atom   3O    basis set group =>   3
Atom   4C    basis set group =>   2
Atom   5H    basis set group =>   4
Atom   6H    basis set group =>   4
Atom   7C    basis set group =>   2
Atom   8C    basis set group =>   2
Atom   9H    basis set group =>   4
Atom  10C    basis set group =>   2
Atom  11H    basis set group =>   4
Atom  12C    basis set group =>   2
Atom  13C    basis set group =>   2
Atom  14H    basis set group =>   4
Atom  15C    basis set group =>   2
Atom  16H    basis set group =>   4
Atom  17O    basis set group =>   3
Atom  18H    basis set group =>   4
Atom  19H    basis set group =>   4
Atom  20H    basis set group =>   4
Atom  21H    basis set group =>   4
Atom  22H    basis set group =>   4
Atom  23N    basis set group =>   1
Atom  24C    basis set group =>   2
Atom  25C    basis set group =>   2
Atom  26O    basis set group =>   3
Atom  27C    basis set group =>   2
Atom  28H    basis set group =>   4
Atom  29H    basis set group =>   4
Atom  30C    basis set group =>   2
Atom  31C    basis set group =>   2
Atom  32H    basis set group =>   4
Atom  33C    basis set group =>   2
Atom  34H    basis set group =>   4
Atom  35C    basis set group =>   2
Atom  36C    basis set group =>   2
Atom  37H    basis set group =>   4
Atom  38C    basis set group =>   2
Atom  39H    basis set group =>   4
Atom  40O    basis set group =>   3
Atom  41H    basis set group =>   4
Atom  42H    basis set group =>   4
Atom  43H    basis set group =>   4
Atom  44N    basis set group =>   1
Atom  45C    basis set group =>   2
Atom  46C    basis set group =>   2
Atom  47O    basis set group =>   3
Atom  48C    basis set group =>   2
Atom  49C    basis set group =>   2
Atom  50C    basis set group =>   2
Atom  51C    basis set group =>   2
Atom  52N    basis set group =>   1
Atom  53H    basis set group =>   4
Atom  54H    basis set group =>   4
Atom  55H    basis set group =>   4
Atom  56H    basis set group =>   4
Atom  57H    basis set group =>   4
Atom  58H    basis set group =>   4
Atom  59H    basis set group =>   4
Atom  60H    basis set group =>   4
Atom  61H    basis set group =>   4
Atom  62H    basis set group =>   4
Atom  63H    basis set group =>   4
Atom  64H    basis set group =>   4
Atom  65H    basis set group =>   4
Atom  66N    basis set group =>   1
Atom  67C    basis set group =>   2
Atom  68C    basis set group =>   2
Atom  69O    basis set group =>   3
Atom  70C    basis set group =>   2
Atom  71H    basis set group =>   4
Atom  72H    basis set group =>   4
Atom  73C    basis set group =>   2
Atom  74C    basis set group =>   2
Atom  75H    basis set group =>   4
Atom  76C    basis set group =>   2
Atom  77H    basis set group =>   4
Atom  78C    basis set group =>   2
Atom  79C    basis set group =>   2
Atom  80H    basis set group =>   4
Atom  81C    basis set group =>   2
Atom  82H    basis set group =>   4
Atom  83O    basis set group =>   3
Atom  84H    basis set group =>   4
Atom  85H    basis set group =>   4
Atom  86H    basis set group =>   4
Atom  87N    basis set group =>   1
Atom  88C    basis set group =>   2
Atom  89C    basis set group =>   2
Atom  90O    basis set group =>   3
Atom  91C    basis set group =>   2
Atom  92C    basis set group =>   2
Atom  93C    basis set group =>   2
Atom  94C    basis set group =>   2
Atom  95N    basis set group =>   1
Atom  96H    basis set group =>   4
Atom  97H    basis set group =>   4
Atom  98H    basis set group =>   4
Atom  99H    basis set group =>   4
Atom 100H    basis set group =>   4
Atom 101H    basis set group =>   4
Atom 102H    basis set group =>   4
Atom 103H    basis set group =>   4
Atom 104H    basis set group =>   4
Atom 105H    basis set group =>   4
Atom 106H    basis set group =>   4
Atom 107H    basis set group =>   4
Atom 108H    basis set group =>   4
Atom 109N    basis set group =>   1
Atom 110C    basis set group =>   2
Atom 111C    basis set group =>   2
Atom 112O    basis set group =>   3
Atom 113C    basis set group =>   2
Atom 114C    basis set group =>   2
Atom 115O    basis set group =>   3
Atom 116H    basis set group =>   4
Atom 117H    basis set group =>   4
Atom 118H    basis set group =>   4
Atom 119H    basis set group =>   4
Atom 120H    basis set group =>   4
Atom 121H    basis set group =>   4
Atom 122H    basis set group =>   4
Atom 123N    basis set group =>   1
Atom 124C    basis set group =>   2
Atom 125C    basis set group =>   2
Atom 126O    basis set group =>   3
Atom 127H    basis set group =>   4
Atom 128H    basis set group =>   4
Atom 129C    basis set group =>   2
Atom 130H    basis set group =>   4
Atom 131H    basis set group =>   4
Atom 132C    basis set group =>   2
Atom 133H    basis set group =>   4
Atom 134C    basis set group =>   2
Atom 135H    basis set group =>   4
Atom 136H    basis set group =>   4
Atom 137H    basis set group =>   4
Atom 138C    basis set group =>   2
Atom 139H    basis set group =>   4
Atom 140H    basis set group =>   4
Atom 141H    basis set group =>   4
Atom 142N    basis set group =>   1
Atom 143C    basis set group =>   2
Atom 144C    basis set group =>   2
Atom 145O    basis set group =>   3
Atom 146H    basis set group =>   4
Atom 147C    basis set group =>   2
Atom 148H    basis set group =>   4
Atom 149H    basis set group =>   4
Atom 150O    basis set group =>   3
Atom 151H    basis set group =>   4
Atom 152H    basis set group =>   4
Atom 153N    basis set group =>   1
Atom 154C    basis set group =>   2
Atom 155C    basis set group =>   2
Atom 156O    basis set group =>   3
Atom 157C    basis set group =>   2
Atom 158C    basis set group =>   2
Atom 159C    basis set group =>   2
Atom 160C    basis set group =>   2
Atom 161N    basis set group =>   1
Atom 162H    basis set group =>   4
Atom 163H    basis set group =>   4
Atom 164H    basis set group =>   4
Atom 165H    basis set group =>   4
Atom 166H    basis set group =>   4
Atom 167H    basis set group =>   4
Atom 168H    basis set group =>   4
Atom 169H    basis set group =>   4
Atom 170H    basis set group =>   4
Atom 171H    basis set group =>   4
Atom 172H    basis set group =>   4
Atom 173H    basis set group =>   4
Atom 174H    basis set group =>   4
Atom 175O    basis set group =>   3


           ************************************************************
           *        Program running with 15 parallel MPI-processes    *
           *              working on a common directory               *
           ************************************************************
------------------------------------------------------------------------------
                           ORCA GTO INTEGRAL CALCULATION
------------------------------------------------------------------------------

                         BASIS SET STATISTICS AND STARTUP INFO

 # of primitive gaussian shells          ... 1038
 # of primitive gaussian functions       ... 1548
 # of contracted shells                  ...  346
 # of contracted basis functions         ...  516
 Highest angular momentum                ...    1
 Maximum contraction depth               ...    3
 Integral package used                   ... LIBINT
 Integral threshhold            Thresh   ...  1.000e-10
 Primitive cut-off              TCut     ...  1.000e-11


------------------------------ INTEGRAL EVALUATION ----------------------------


 * One electron integrals 
 Pre-screening matrix                    ... done
 Shell pair data                         ... done (   0.013 sec)



           ************************************************************
           *        Program running with 15 parallel MPI-processes    *
           *              working on a common directory               *
           ************************************************************
-------------------------------------------------------------------------------
                                 ORCA SCF
-------------------------------------------------------------------------------

------------
SCF SETTINGS
------------
Hamiltonian:
 Ab initio Hamiltonian  Method          .... Hartree-Fock(GTOs)


General Settings:
 Integral files         IntName         .... YYKYKTLSK
 Hartree-Fock type      HFTyp           .... UHF
 Total Charge           Charge          ....    0
 Multiplicity           Mult            ....    2
 Number of Electrons    NEL             ....  643
 Basis Dimension        Dim             ....  516
 Nuclear Repulsion      ENuc            ....  14247.4408197231 Eh

Convergence Acceleration:
 DIIS                   CNVDIIS         .... off
 Newton-Raphson         CNVNR           .... off
 SOSCF                  CNVSOSCF        .... off
 Level Shifting         CNVShift        .... off
 Zerner damping         CNVZerner       .... off
 Static damping         CNVDamp         .... off
 Fernandez-Rico         CNVRico         .... off

SCF Procedure:
 Maximum # iterations   MaxIter         .... 10000
 SCF integral mode      SCFMode         .... Direct
   Integral package                     .... LIBINT
 Reset frequency        DirectResetFreq ....    20
 Integral Threshold     Thresh          ....  1.000e-10 Eh
 Primitive CutOff       TCut            ....  1.000e-11 Eh

Convergence Tolerance:
 Convergence Check Mode ConvCheckMode   .... All-Criteria
 Convergence forced     ConvForced      .... 0
 Energy Change          TolE            ....  1.000e-06 Eh
 Max Density Change     TolMaxP         ....  1.000e-05
 RMS Density Change     TolRMSP         ....  1.000e-06


Diagonalization of the overlap matrix:
Smallest eigenvalue                        ... 1.716e-01
Time for diagonalization                   ...    0.056 sec
Threshold for overlap eigenvalues          ... 1.000e-08
Number of eigenvalues below threshold      ... 0
Time for construction of square roots      ...    0.149 sec
Total time needed                          ...    0.206 sec

--------------------------------
INITIAL GUESS: MINIMAL BASIS EHT
--------------------------------
The minimal basis has 516 functions
EHT matrix was diagonalized
Basis set overlap was calculated now projecting the orbitals
Using GuessMode=FMatrix for the initial guess
C*T matrix was formed
Effective Fockian was calculated
Effective Fockian was diagonalized
Initial density was built
                      ------------------
                      INITIAL GUESS DONE
                      ------------------

--------------------
CPCM SOLVATION MODEL
--------------------
CPCM parameters:
  Epsilon                                         ...      78.3550
  Refrac                                          ...       1.3300
  Rsolv                                           ...       1.3000
  Surface type                                    ...    GEPOL SES
  Epsilon function type                           ...         CPCM
Solvent:                                     ... WATER
SMD-CDS solvent descriptors:
  Soln                                       ...    1.3328
  Soln25                                     ...    1.3323
  Sola                                       ...    0.0000
  Solb                                       ...    0.0000
  Solg                                       ...    0.0000
  Solc                                       ...    0.0000
  Solh                                       ...    0.0000
Radii:
 Radius for N  used is    3.5716 Bohr (=   1.8900 Ang.)
 Radius for C  used is    3.4960 Bohr (=   1.8500 Ang.)
 Radius for O  used is    2.8724 Bohr (=   1.5200 Ang.)
 Radius for H  used is    2.2677 Bohr (=   1.2000 Ang.)
Calculating surface                               ...        done! (  1.2s)
GEPOL surface points                              ...         8464
GEPOL Volume                                      ...    8478.2547
GEPOL Surface-area                                ...    4138.9330
Calculating surface distance matrix               ...        done! (  1.6s)
Performing Cholesky decomposition & store         ...        done! (  7.3s)
Overall time for CPCM initialization              ...                10.1s
--------------
SCF ITERATIONS
--------------
ITER       Energy         Delta-E        Max-DP      RMS-DP      [F,P]   Gradient Norm
               ***  Starting incremental Fock matrix formation  ***
                             ****Resetting KDIIS****
                             ****Turning on KDIIS(Cayley)****
  0  -3991.7712029994   0.000000000000 0.02974678  0.00049865  0.7673945   0.203531817
  1  -3992.8953017067  -1.124098707246 0.04594341  0.00074249  0.6943623   0.183439040
  2  -3994.3913986378  -1.496096931127 0.07797821  0.00131072  0.5591379   0.148063401
  3  -3996.2198906894  -1.828492051553 0.11299355  0.00200281  0.3385380   0.089704265
  4  -3997.2784122426  -1.058521553245 0.02334364  0.00036985  0.0332686   0.006744788
  5  -3997.2936033672  -0.015191124586 0.03001857  0.00039256  0.0255227   0.003570962
  6  -3997.3015500817  -0.007946714533 0.00925650  0.00012153  0.0205913   0.002957484
  7  -3997.3004349291   0.001115152645 0.08790966  0.00078734  0.0199282   0.002484795
  8  -3997.3202538995  -0.019818970462 0.01949649  0.00019908  0.0123566   0.001463231
  9  -3997.3205122406  -0.000258341061 0.03022882  0.00029314  0.0081873   0.001250645
 10  -3997.3220857270  -0.001573486361 0.02933326  0.00022504  0.0058134   0.001224275
 11  -3997.3243620413  -0.002276314351 0.05219220  0.00033650  0.0094884   0.001031439
 12  -3997.3211586081   0.003203433208 0.01692614  0.00013990  0.0053240   0.000858095
 13  -3997.3210627065   0.000095901625 0.01056833  0.00009353  0.0023452   0.000533827
 14  -3997.3215150785  -0.000452372042 0.01581765  0.00010982  0.0031032   0.000501209
 15  -3997.3207782024   0.000736876086 0.00451669  0.00003382  0.0024760   0.000488306
 16  -3997.3207822225  -0.000004020118 0.00446523  0.00005657  0.0020913   0.000346587
 17  -3997.3209796873  -0.000197464800 0.01092861  0.00006342  0.0019100   0.000259961
 18  -3997.3212375374  -0.000257850066 0.01491138  0.00008164  0.0021203   0.000260618
 19  -3997.3209583489   0.000279188529 0.00475542  0.00002946  0.0020967   0.000285904
               *** Restarting incremental Fock matrix formation ***
                             ****Resetting KDIIS****
 20  -3997.3210157730  -0.000057424144 0.00059563  0.00000501  0.0020639   0.000268882
 21  -3997.3210411855  -0.000025412482 0.00105310  0.00000797  0.0021016   0.000268647
 22  -3997.3210104507   0.000030734833 0.00258268  0.00001600  0.0020320   0.000256742
 23  -3997.3209925476   0.000017903074 0.00473551  0.00003427  0.0018737   0.000239697
 24  -3997.3210759833  -0.000083435741 0.00580238  0.00005249  0.0017046   0.000221781
 25  -3997.3210413605   0.000034622890 0.00380094  0.00003042  0.0018848   0.000214579
 26  -3997.3209618710   0.000079489485 0.01096040  0.00005851  0.0017397   0.000207610
 27  -3997.3207588526   0.000203018323 0.00424869  0.00003249  0.0016244   0.000252894
 28  -3997.3208779116  -0.000119058975 0.02053334  0.00010768  0.0015595   0.000222050
 29  -3997.3205629284   0.000314983211 0.02026205  0.00010948  0.0018950   0.000227615
 30  -3997.3208835701  -0.000320641668 0.00201320  0.00001677  0.0016419   0.000224432
 31  -3997.3208750720   0.000008498077 0.00754345  0.00004281  0.0015477   0.000233459
 32  -3997.3210287759  -0.000153703865 0.01094989  0.00005851  0.0016115   0.000201826
 33  -3997.3208194070   0.000209368849 0.01001223  0.00005407  0.0016699   0.000239366
 34  -3997.3206605487   0.000158858318 0.00366354  0.00001937  0.0017240   0.000230462
 35  -3997.3206038737   0.000056675004 0.00687833  0.00006204  0.0017771   0.000227121
 36  -3997.3206412748  -0.000037401135 0.00434442  0.00003263  0.0014900   0.000275204
 37  -3997.3207057544  -0.000064479565 0.02076447  0.00011315  0.0017279   0.000269120
 38  -3997.3211185627  -0.000412808344 0.03780148  0.00020109  0.0017890   0.000220095
 39  -3997.3204392833   0.000679279403 0.00278142  0.00002610  0.0020423   0.000295620
               *** Restarting incremental Fock matrix formation ***
                             ****Resetting KDIIS****
 40  -3997.3204311353   0.000008148068 0.00071809  0.00000430  0.0020338   0.000256388
 41  -3997.3204507402  -0.000019604959 0.00124090  0.00000743  0.0020379   0.000249759
 42  -3997.3204842491  -0.000033508867 0.00186922  0.00001015  0.0020445   0.000240031
 43  -3997.3205270398  -0.000042790753 0.03255160  0.00017082  0.0020287   0.000229855
 44  -3997.3210816080  -0.000554568165 0.00348503  0.00001909  0.0015445   0.000243142
 45  -3997.3210141269   0.000067481126 0.00529433  0.00003995  0.0015366   0.000243435
 46  -3997.3209316174   0.000082509459 0.00534353  0.00003366  0.0013671   0.000198749
 47  -3997.3210456376  -0.000114020136 0.00952812  0.00005263  0.0015413   0.000218124
 48  -3997.3208654604   0.000180177195 0.04006651  0.00020795  0.0014591   0.000216479
 49  -3997.3201193528   0.000746107527 0.08061396  0.00042514  0.0019026   0.000250820
 50  -3997.3216535286  -0.001534175792 0.03044900  0.00017004  0.0023699   0.000369444
 51  -3997.3210319535   0.000621575182 0.00184432  0.00001274  0.0015274   0.000266284
 52  -3997.3210752365  -0.000043283082 0.00784224  0.00006437  0.0016437   0.000239042
 53  -3997.3212269840  -0.000151747498 0.03450872  0.00018552  0.0017664   0.000230716
 54  -3997.3205825992   0.000644384795 0.02608083  0.00013703  0.0017118   0.000244340
 55  -3997.3200805379   0.000502061321 0.01503562  0.00008032  0.0020680   0.000270426
 56  -3997.3203589518  -0.000278413838 0.06302639  0.00035325  0.0018100   0.000287847
 57  -3997.3215711578  -0.001212206073 0.03710130  0.00024378  0.0019741   0.000365106
 58  -3997.3228141606  -0.001243002776 0.06899149  0.00042333  0.0038673   0.000708735
[...]
 39 H      0.8573     1.0000     0.1427     0.9796     0.9796     0.0000
 40 O      8.5231     8.0000    -0.5231     1.9699     1.9699     0.0000
 41 H      0.6502     1.0000     0.3498     0.8776     0.8776     0.0000
 42 H      0.8305     1.0000     0.1695     0.9713     0.9713     0.0000
 43 H      0.6926     1.0000     0.3074     0.9055     0.9055     0.0000
 44 N      7.4109     7.0000    -0.4109     3.2155     3.2155     0.0000
 45 C      6.0243     6.0000    -0.0243     3.9344     3.9344     0.0000
 46 C      5.6043     6.0000     0.3957     3.9126     3.9126     0.0000
 47 O      8.4765     8.0000    -0.4765     2.0028     2.0028     0.0000
 48 C      6.2441     6.0000    -0.2441     3.9489     3.9489     0.0000
 49 C      6.2454     6.0000    -0.2454     3.9582     3.9582     0.0000
 50 C      6.2443     6.0000    -0.2443     3.9485     3.9485     0.0000
 51 C      6.1223     6.0000    -0.1223     3.8150     3.8150     0.0000
 52 N      7.4967     7.0000    -0.4967     3.4208     3.4208     0.0000
 53 H      0.8340     1.0000     0.1660     0.9724     0.9724     0.0000
 54 H      0.8674     1.0000     0.1326     0.9824     0.9824     0.0000
 55 H      0.8396     1.0000     0.1604     0.9743     0.9743     0.0000
 56 H      0.8652     1.0000     0.1348     0.9818     0.9818     0.0000
 57 H      0.8641     1.0000     0.1359     0.9815     0.9815     0.0000
 58 H      0.8535     1.0000     0.1465     0.9785     0.9785     0.0000
 59 H      0.8544     1.0000     0.1456     0.9788     0.9788     0.0000
 60 H      0.8143     1.0000     0.1857     0.9655     0.9655     0.0000
 61 H      0.8149     1.0000     0.1851     0.9657     0.9657     0.0000
 62 H      0.6082     1.0000     0.3918     0.8465     0.8465     0.0000
 63 H      0.6123     1.0000     0.3877     0.8497     0.8497     0.0000
 64 H      0.6094     1.0000     0.3906     0.8474     0.8474     0.0000
 65 H      0.7081     1.0000     0.2919     0.9148     0.9148     0.0000
 66 N      7.4128     7.0000    -0.4128     3.2294     3.2294     0.0000
 67 C      6.0111     6.0000    -0.0111     3.9226     3.9223     0.0002
 68 C      5.5958     6.0000     0.4042     3.9046     3.9046     0.0000
 69 O      8.4924     8.0000    -0.4924     1.9898     1.9897     0.0000
 70 C      6.2417     6.0000    -0.2417     3.9527     3.9518     0.0009
 71 H      0.8502     1.0000     0.1498     0.9776     0.9775     0.0001
 72 H      0.8802     1.0000     0.1198     0.9856     0.9856     0.0000
 73 C      6.0515     6.0000    -0.0515     3.9915     3.8816     0.1098
 74 C      6.2347     6.0000    -0.2347     3.9491     3.7630     0.1861
 75 H      0.9287     1.0000     0.0713     0.9949     0.9934     0.0015
 76 C      6.2954     6.0000    -0.2954     3.8851     3.7866     0.0985
 77 H      0.9304     1.0000     0.0696     0.9952     0.9943     0.0008
 78 C      5.8603     6.0000     0.1397     3.8902     3.8665     0.0237
 79 C      6.3137     6.0000    -0.3137     3.8766     3.7866     0.0900
 80 H      0.9342     1.0000     0.0658     0.9957     0.9949     0.0007
 81 C      6.2540     6.0000    -0.2540     3.9367     3.7258     0.2109
 82 H      0.9292     1.0000     0.0708     0.9950     0.9932     0.0017
 83 O      8.5486     8.0000    -0.5486     1.9446     1.9444     0.0001
 84 H      0.6717     1.0000     0.3283     0.8922     0.8922     0.0000
 85 H      0.8332     1.0000     0.1668     0.9722     0.9722     0.0000
 86 H      0.7172     1.0000     0.2828     0.9200     0.9200     0.0000
 87 N      7.4045     7.0000    -0.4045     3.2211     3.2211     0.0000
 88 C      6.0196     6.0000    -0.0196     3.9318     3.9318     0.0000
 89 C      5.5639     6.0000     0.4361     3.8834     3.8834     0.0000
 90 O      8.4787     8.0000    -0.4787     2.0918     2.0918     0.0000
 91 C      6.2428     6.0000    -0.2428     3.9463     3.9463     0.0000
 92 C      6.2459     6.0000    -0.2459     3.9575     3.9575     0.0000
 93 C      6.2445     6.0000    -0.2445     3.9484     3.9484     0.0000
 94 C      6.1222     6.0000    -0.1222     3.8150     3.8150     0.0000
 95 N      7.4967     7.0000    -0.4967     3.4208     3.4208     0.0000
 96 H      0.8252     1.0000     0.1748     0.9694     0.9694     0.0000
 97 H      0.8640     1.0000     0.1360     0.9815     0.9815     0.0000
 98 H      0.8373     1.0000     0.1627     0.9735     0.9735     0.0000
 99 H      0.8645     1.0000     0.1355     0.9816     0.9816    -0.0000
100 H      0.8620     1.0000     0.1380     0.9809     0.9809     0.0000
101 H      0.8532     1.0000     0.1468     0.9785     0.9785     0.0000
102 H      0.8535     1.0000     0.1465     0.9785     0.9785     0.0000
103 H      0.8141     1.0000     0.1859     0.9654     0.9654     0.0000
104 H      0.8145     1.0000     0.1855     0.9656     0.9656     0.0000
105 H      0.6078     1.0000     0.3922     0.8462     0.8462     0.0000
106 H      0.6122     1.0000     0.3878     0.8496     0.8496     0.0000
107 H      0.6097     1.0000     0.3903     0.8476     0.8476     0.0000
108 H      0.7003     1.0000     0.2997     0.9102     0.9102     0.0000
109 N      7.4053     7.0000    -0.4053     3.2418     3.2418     0.0000
110 C      6.0348     6.0000    -0.0348     3.9193     3.9193     0.0000
111 C      5.5981     6.0000     0.4019     3.9125     3.9125     0.0000
112 O      8.4793     8.0000    -0.4793     1.9989     1.9989     0.0000
113 C      6.3755     6.0000    -0.3755     3.9461     3.9461     0.0000
114 C      5.9600     6.0000     0.0400     3.9405     3.9405     0.0000
115 O      8.6075     8.0000    -0.6075     1.7956     1.7956     0.0000
116 H      0.8680     1.0000     0.1320     0.9826     0.9826     0.0000
117 H      0.8737     1.0000     0.1263     0.9840     0.9840     0.0000
118 H      0.8720     1.0000     0.1280     0.9836     0.9836     0.0000
119 H      0.8688     1.0000     0.1312     0.9828     0.9828     0.0000
120 H      0.8245     1.0000     0.1755     0.9692     0.9692     0.0000
121 H      0.6054     1.0000     0.3946     0.8443     0.8443     0.0000
122 H      0.7022     1.0000     0.2978     0.9113     0.9113     0.0000
123 N      7.4096     7.0000    -0.4096     3.2143     3.2143    -0.0000
124 C      6.0233     6.0000    -0.0233     3.9237     3.9237    -0.0000
125 C      5.5977     6.0000     0.4023     3.9092     3.9092     0.0000
126 O      8.4935     8.0000    -0.4935     1.9868     1.9868     0.0000
127 H      0.8260     1.0000     0.1740     0.9697     0.9697    -0.0000
128 H      0.7134     1.0000     0.2866     0.9178     0.9178    -0.0000
129 C      6.2361     6.0000    -0.2361     3.9480     3.9480     0.0000
130 H      0.8429     1.0000     0.1571     0.9753     0.9753     0.0000
131 H      0.8697     1.0000     0.1303     0.9830     0.9830    -0.0000
132 C      6.1257     6.0000    -0.1257     3.9782     3.9782    -0.0000
133 H      0.8677     1.0000     0.1323     0.9825     0.9825    -0.0000
134 C      6.3676     6.0000    -0.3676     3.9502     3.9502     0.0000
135 H      0.8735     1.0000     0.1265     0.9840     0.9840     0.0000
136 H      0.8745     1.0000     0.1255     0.9843     0.9843     0.0000
137 H      0.8816     1.0000     0.1184     0.9860     0.9860     0.0000
138 C      6.3605     6.0000    -0.3605     3.9514     3.9514     0.0000
139 H      0.8810     1.0000     0.1190     0.9858     0.9858    -0.0000
140 H      0.8769     1.0000     0.1231     0.9848     0.9848     0.0000
141 H      0.8784     1.0000     0.1216     0.9852     0.9852     0.0000
142 N      7.4031     7.0000    -0.4031     3.2422     3.2422     0.0000
143 C      6.0230     6.0000    -0.0230     3.9302     3.9302    -0.0000
144 C      5.6000     6.0000     0.4000     3.9137     3.9137     0.0000
145 O      8.4914     8.0000    -0.4914     1.9952     1.9952     0.0000
146 H      0.8250     1.0000     0.1750     0.9694     0.9694     0.0000
147 C      6.0575     6.0000    -0.0575     3.8747     3.8747     0.0000
148 H      0.8394     1.0000     0.1606     0.9742     0.9742     0.0000
149 H      0.8608     1.0000     0.1392     0.9806     0.9806     0.0000
150 O      8.5365     8.0000    -0.5365     1.8728     1.8728    -0.0000
151 H      0.6739     1.0000     0.3261     0.8937     0.8937     0.0000
152 H      0.7148     1.0000     0.2852     0.9187     0.9187     0.0000
153 N      7.4136     7.0000    -0.4136     3.2344     3.2344     0.0000
154 C      6.0417     6.0000    -0.0417     3.9246     3.9246    -0.0000
155 C      5.6283     6.0000     0.3717     3.9318     3.9318    -0.0000
156 O      8.6167     8.0000    -0.6167     1.8886     1.8886     0.0000
157 C      6.2423     6.0000    -0.2423     3.9576     3.9576     0.0000
158 C      6.2409     6.0000    -0.2409     3.9559     3.9559     0.0000
159 C      6.2471     6.0000    -0.2471     3.9491     3.9491    -0.0000
160 C      6.1229     6.0000    -0.1229     3.8138     3.8138    -0.0000
161 N      7.4968     7.0000    -0.4968     3.4211     3.4211     0.0000
162 H      0.8580     1.0000     0.1420     0.9798     0.9798     0.0000
163 H      0.8790     1.0000     0.1210     0.9854     0.9854    -0.0000
164 H      0.8535     1.0000     0.1465     0.9785     0.9785    -0.0000
165 H      0.8723     1.0000     0.1277     0.9837     0.9837    -0.0000
166 H      0.8554     1.0000     0.1446     0.9791     0.9791    -0.0000
167 H      0.8572     1.0000     0.1428     0.9796     0.9796    -0.0000
168 H      0.8578     1.0000     0.1422     0.9798     0.9798    -0.0000
169 H      0.8158     1.0000     0.1842     0.9661     0.9661    -0.0000
170 H      0.8150     1.0000     0.1850     0.9658     0.9658    -0.0000
171 H      0.6088     1.0000     0.3912     0.8470     0.8470     0.0000
172 H      0.6130     1.0000     0.3870     0.8502     0.8502    -0.0000
173 H      0.6104     1.0000     0.3896     0.8482     0.8482     0.0000
174 H      0.7115     1.0000     0.2885     0.9167     0.9167     0.0000
175 O      8.6727     8.0000    -0.6727     1.7131     1.7131     0.0000

  Mayer bond orders larger than 0.100000
B(  0-N ,  1-C ) :   0.8967 B(  0-N , 20-H ) :   0.7739 B(  0-N , 21-H ) :   0.7843 
B(  0-N , 22-H ) :   0.8095 B(  1-C ,  2-C ) :   0.9512 B(  1-C ,  4-C ) :   0.9718 
B(  1-C , 19-H ) :   0.9280 B(  2-C ,  3-O ) :   1.7080 B(  2-C , 23-N ) :   1.2094 
B(  3-O , 23-N ) :   0.1552 B(  4-C ,  5-H ) :   0.9589 B(  4-C ,  6-H ) :   0.9641 
B(  4-C ,  7-C ) :   0.9930 B(  7-C ,  8-C ) :   1.5014 B(  7-C , 15-C ) :   1.3651 
B(  8-C ,  9-H ) :   0.9813 B(  8-C , 10-C ) :   1.0394 B(  8-C , 15-C ) :   0.2064 
B( 10-C , 11-H ) :   0.9814 B( 10-C , 12-C ) :   1.3615 B( 10-C , 13-C ) :   0.1766 
B( 12-C , 13-C ) :   1.4577 B( 12-C , 17-O ) :   0.9450 B( 13-C , 14-H ) :   0.9794 
B( 13-C , 15-C ) :   1.0282 B( 15-C , 16-H ) :   0.9815 B( 17-O , 18-H ) :   0.8829 
B( 23-N , 24-C ) :   0.9628 B( 23-N , 43-H ) :   0.8655 B( 24-C , 25-C ) :   0.9525 
B( 24-C , 27-C ) :   0.9738 B( 24-C , 42-H ) :   0.9363 B( 25-C , 26-O ) :   1.7481 
B( 25-C , 44-N ) :   1.1694 B( 26-O , 44-N ) :   0.1454 B( 27-C , 28-H ) :   0.9471 
B( 27-C , 29-H ) :   0.9640 B( 27-C , 30-C ) :   1.0105 B( 30-C , 31-C ) :   1.3953 
B( 30-C , 38-C ) :   1.4421 B( 31-C , 32-H ) :   0.9625 B( 31-C , 33-C ) :   1.4156 
B( 33-C , 34-H ) :   0.9612 B( 33-C , 35-C ) :   1.4166 B( 33-C , 38-C ) :   0.1025 
B( 35-C , 36-C ) :   1.3676 B( 35-C , 40-O ) :   1.0015 B( 36-C , 37-H ) :   0.9614 
B( 36-C , 38-C ) :   1.4226 B( 38-C , 39-H ) :   0.9613 B( 40-O , 41-H ) :   0.8564 
B( 44-N , 45-C ) :   0.9702 B( 44-N , 65-H ) :   0.8773 B( 45-C , 46-C ) :   0.9526 
B( 45-C , 48-C ) :   0.9810 B( 45-C , 53-H ) :   0.9395 B( 46-C , 47-O ) :   1.7408 
B( 46-C , 66-N ) :   1.1796 B( 47-O , 66-N ) :   0.1510 B( 48-C , 49-C ) :   1.0060 
B( 48-C , 54-H ) :   0.9662 B( 48-C , 55-H ) :   0.9472 B( 49-C , 50-C ) :   1.0040 
B( 49-C , 56-H ) :   0.9647 B( 49-C , 57-H ) :   0.9612 B( 50-C , 51-C ) :   1.0023 
B( 50-C , 58-H ) :   0.9613 B( 50-C , 59-H ) :   0.9615 B( 51-C , 52-N ) :   0.8995 
B( 51-C , 60-H ) :   0.9482 B( 51-C , 61-H ) :   0.9488 B( 52-N , 62-H ) :   0.8351 
B( 52-N , 63-H ) :   0.8375 B( 52-N , 64-H ) :   0.8350 B( 66-N , 67-C ) :   0.9595 
B( 66-N , 86-H ) :   0.8850 B( 67-C , 68-C ) :   0.9539 B( 67-C , 70-C ) :   0.9732 
B( 67-C , 85-H ) :   0.9367 B( 68-C , 69-O ) :   1.7325 B( 68-C , 87-N ) :   1.1765 
B( 69-O , 87-N ) :   0.1446 B( 70-C , 71-H ) :   0.9503 B( 70-C , 72-H ) :   0.9680 
B( 70-C , 73-C ) :   1.0053 B( 73-C , 74-C ) :   1.4057 B( 73-C , 81-C ) :   1.3672 
B( 74-C , 75-H ) :   0.9749 B( 74-C , 76-C ) :   1.2215 B( 76-C , 77-H ) :   0.9757 
B( 76-C , 78-C ) :   1.3945 B( 78-C , 79-C ) :   1.3952 B( 78-C , 83-O ) :   0.9744 
B( 79-C , 80-H ) :   0.9750 B( 79-C , 81-C ) :   1.2255 B( 81-C , 82-H ) :   0.9746 
B( 83-O , 84-H ) :   0.8706 B( 87-N , 88-C ) :   0.9732 B( 87-N ,108-H ) :   0.8741 
B( 88-C , 89-C ) :   0.9569 B( 88-C , 91-C ) :   0.9789 B( 88-C , 96-H ) :   0.9354 
B( 89-C , 90-O ) :   1.6497 B( 89-C ,109-N ) :   1.2132 B( 90-O ,109-N ) :   0.1402 
B( 90-O ,121-H ) :   0.1648 B( 91-C , 92-C ) :   1.0060 B( 91-C , 97-H ) :   0.9653 
B( 91-C , 98-H ) :   0.9462 B( 92-C , 93-C ) :   1.0042 B( 92-C , 99-H ) :   0.9645 
B( 92-C ,100-H ) :   0.9610 B( 93-C , 94-C ) :   1.0024 B( 93-C ,101-H ) :   0.9612 
B( 93-C ,102-H ) :   0.9613 B( 94-C , 95-N ) :   0.8997 B( 94-C ,103-H ) :   0.9482 
B( 94-C ,104-H ) :   0.9486 B( 95-N ,105-H ) :   0.8348 B( 95-N ,106-H ) :   0.8374 
B( 95-N ,107-H ) :   0.8352 B(109-N ,110-C ) :   0.9563 B(109-N ,122-H ) :   0.8772 
B(110-C ,111-C ) :   0.9543 B(110-C ,114-C ) :   0.9627 B(110-C ,120-H ) :   0.9351 
B(111-C ,112-O ) :   1.7428 B(111-C ,123-N ) :   1.1742 B(112-O ,123-N ) :   0.1441 
B(113-C ,114-C ) :   1.0000 B(113-C ,116-H ) :   0.9718 B(113-C ,117-H ) :   0.9737 
B(113-C ,118-H ) :   0.9694 B(114-C ,115-O ) :   0.9887 B(114-C ,119-H ) :   0.9501 
B(115-O ,121-H ) :   0.6644 B(123-N ,124-C ) :   0.9599 B(123-N ,128-H ) :   0.8833 
B(124-C ,125-C ) :   0.9531 B(124-C ,127-H ) :   0.9352 B(124-C ,129-C ) :   0.9827 
B(125-C ,126-O ) :   1.7307 B(125-C ,142-N ) :   1.1840 B(126-O ,142-N ) :   0.1527 
B(129-C ,130-H ) :   0.9469 B(129-C ,131-H ) :   0.9648 B(129-C ,132-C ) :   0.9951 
B(132-C ,133-H ) :   0.9550 B(132-C ,134-C ) :   1.0084 B(132-C ,138-C ) :   1.0077 
B(134-C ,135-H ) :   0.9737 B(134-C ,136-H ) :   0.9740 B(134-C ,137-H ) :   0.9743 
B(138-C ,139-H ) :   0.9746 B(138-C ,140-H ) :   0.9413 B(138-C ,141-H ) :   0.9742 
B(142-N ,143-C ) :   0.9692 B(142-N ,152-H ) :   0.8593 B(143-C ,144-C ) :   0.9518 
B(143-C ,146-H ) :   0.9332 B(143-C ,147-C ) :   0.9790 B(144-C ,145-O ) :   1.7229 
B(144-C ,153-N ) :   1.1969 B(145-O ,153-N ) :   0.1511 B(147-C ,148-H ) :   0.9458 
B(147-C ,149-H ) :   0.9542 B(147-C ,150-O ) :   0.9519 B(150-O ,151-H ) :   0.8759 
B(153-N ,154-C ) :   0.9554 B(153-N ,174-H ) :   0.8775 B(154-C ,155-C ) :   0.9211 
B(154-C ,157-C ) :   0.9846 B(154-C ,162-H ) :   0.9483 B(155-C ,156-O ) :   1.5763 
B(155-C ,175-O ) :   1.4191 B(156-O ,175-O ) :   0.2313 B(157-C ,158-C ) :   1.0060 
B(157-C ,163-H ) :   0.9691 B(157-C ,164-H ) :   0.9520 B(158-C ,159-C ) :   1.0030 
B(158-C ,165-H ) :   0.9667 B(158-C ,166-H ) :   0.9577 B(159-C ,160-C ) :   1.0018 
B(159-C ,167-H ) :   0.9622 B(159-C ,168-H ) :   0.9623 B(160-C ,161-N ) :   0.8980 
B(160-C ,169-H ) :   0.9487 B(160-C ,170-H ) :   0.9488 B(161-N ,171-H ) :   0.8355 
B(161-N ,172-H ) :   0.8380 B(161-N ,173-H ) :   0.8358 

-------
TIMINGS
-------

Total SCF time: 0 days 1 hours 23 min 17 sec 

Total time                  ....    4997.588 sec
Sum of individual times     ....    4963.810 sec  ( 99.3%)

Fock matrix formation       ....    4821.731 sec  ( 96.5%)
Diagonalization             ....     135.971 sec  (  2.7%)
Density matrix formation    ....       4.983 sec  (  0.1%)
Population analysis         ....       0.474 sec  (  0.0%)
Initial guess               ....       0.650 sec  (  0.0%)
Orbital Transformation      ....       0.000 sec  (  0.0%)
Orbital Orthonormalization  ....       0.000 sec  (  0.0%)
DIIS solution               ....       0.000 sec  (  0.0%)


-------------------------------------------------------------------------------
                          DFT DISPERSION CORRECTION                            
                                                                               
                              DFTD3 V3.1  Rev 1                                
                          USING Becke-Johnson damping                          
-------------------------------------------------------------------------------
Hartree-Fock is recognized
Active option DFTDOPT                   ...         4   

molecular C6(AA) [au] = 275641.983068 


            DFT-D V3
 parameters
 using HF/MINIX parameters
 s6 scaling factor         :     1.0000 
 a1 scaling factor         :     0.4171 
 s8 scaling factor         :     0.8777 
 a2 scaling factor         :     2.9149 
 ad hoc parameters k1-k3   :    16.0000     1.3333    -4.0000 

 Edisp/kcal,au: -586.007454269575  -0.933862221976 
 E6   /kcal   : -336.282068076 
 E8   /kcal   : -249.725386194 
 % E8         :  42.614711532 

-------------------------   ----------------
Dispersion correction           -0.933862222
-------------------------   ----------------

------------------   -----------------
gCP+bas correction        -0.636465661
------------------   -----------------
----------------------------   ----------------
Total correction to HF/MINIX       -1.570327883
----------------------------   ----------------


-------------------------   --------------------
FINAL SINGLE POINT ENERGY     -3998.844139097764
-------------------------   --------------------


                            ***************************************
                            *     ORCA property calculations      *
                            ***************************************

                                    ---------------------
                                    Active property flags
                                    ---------------------
   (+) Dipole Moment


------------------------------------------------------------------------------
                       ORCA ELECTRIC PROPERTIES CALCULATION
------------------------------------------------------------------------------

Dipole Moment Calculation                       ... on
Quadrupole Moment Calculation                   ... off
Polarizability Calculation                      ... off
GBWName                                         ... YYKYKTLSK.gbw
Electron density file                           ... YYKYKTLSK.scfp
The origin for moment calculation is the CENTER OF MASS  = (23.799043,  0.581992 16.669675)

-------------
DIPOLE MOMENT
-------------
                                X             Y             Z
Electronic contribution:    -63.02879     -19.71331      12.27636
Nuclear contribution   :     92.58214      40.53865     -24.32469
                        -----------------------------------------
Total Dipole Moment    :     29.55334      20.82535     -12.04833
                        -----------------------------------------
Magnitude (a.u.)       :     38.10850
Magnitude (Debye)      :     96.86410



--------------------
Rotational spectrum 
--------------------
 
Rotational constants in cm-1:     0.001416     0.000156     0.000142 
Rotational constants in MHz :    42.455750     4.662576     4.249867 

 Dipole components along the rotational axes: 
x,y,z [a.u.] :   -17.303163   -32.046160   -11.220588 
x,y,z [Debye]:   -43.981146   -81.454864   -28.520469 

 

Timings for individual modules:

Sum of individual times         ...     5001.173 sec (=  83.353 min)
GTO integral calculation        ...        2.520 sec (=   0.042 min)   0.1 %
SCF iterations                  ...     4998.653 sec (=  83.311 min)  99.9 %
                             ****ORCA TERMINATED NORMALLY****
TOTAL RUN TIME: 0 days 1 hours 23 minutes 26 seconds 198 msec
