/home/zfg2013/blue_zfg2013/INPS
c0703a-s15.ufhpc
Fri Aug  4 00:39:52 EDT 2023

                                 *****************
                                 * O   R   C   A *
                                 *****************

           --- An Ab Initio, DFT and Semiempirical electronic structure package ---

                  #######################################################
                  #                        -***-                        #
                  #          Department of theory and spectroscopy      #
                  #               Directorship: Frank Neese             #
                  #        Max Planck Institute fuer Kohlenforschung    #
                  #                Kaiser Wilhelm Platz 1               #
                  #                 D-45470 Muelheim/Ruhr               #
                  #                      Germany                        #
                  #                                                     #
                  #                  All rights reserved                #
                  #                        -***-                        #
                  #######################################################


                         Program Version 4.2.1 -  RELEASE  -


 With contributions from (in alphabetic order):
   Daniel Aravena         : Magnetic Suceptibility
   Michael Atanasov       : Ab Initio Ligand Field Theory (pilot matlab implementation)
   Alexander A. Auer      : GIAO ZORA, VPT2
   Ute Becker             : Parallelization
   Giovanni Bistoni       : ED, misc. LED, open-shell LED, HFLD
   Martin Brehm           : Molecular dynamics
   Dmytro Bykov           : SCF Hessian
   Vijay G. Chilkuri      : MRCI spin determinant printing, contributions to CSF-ICE
   Dipayan Datta          : RHF DLPNO-CCSD density
   Achintya Kumar Dutta   : EOM-CC, STEOM-CC
   Dmitry Ganyushin       : Spin-Orbit,Spin-Spin,Magnetic field MRCI
   Miquel Garcia          : C-PCM Hessian, Gaussian charge scheme
   Yang Guo               : DLPNO-NEVPT2, CIM, IAO-localization
   Andreas Hansen         : Spin unrestricted coupled pair/coupled cluster methods
   Benjamin Helmich-Paris : CASSCF linear response (MC-RPA)
   Lee Huntington         : MR-EOM, pCC
   Robert Izsak           : Overlap fitted RIJCOSX, COSX-SCS-MP3, EOM
   Christian Kollmar      : KDIIS, OOCD, Brueckner-CCSD(T), CCSD density
   Simone Kossmann        : Meta GGA functionals, TD-DFT gradient, OOMP2, MP2 Hessian
   Martin Krupicka        : AUTO-CI
   Lucas Lang             : DCDCAS
   Dagmar Lenk            : GEPOL surface, SMD
   Dimitrios Liakos       : Extrapolation schemes; Compound Job, initial MDCI parallelization
   Dimitrios Manganas     : Further ROCIS development; embedding schemes
   Dimitrios Pantazis     : SARC Basis sets
   Taras Petrenko         : DFT Hessian,TD-DFT gradient, ASA, ECA, R-Raman, ABS, FL, XAS/XES, NRVS
   Peter Pinski           : DLPNO-MP2, DLPNO-MP2 Gradient
   Christoph Reimann      : Effective Core Potentials
   Marius Retegan         : Local ZFS, SOC
   Christoph Riplinger    : Optimizer, TS searches, QM/MM, DLPNO-CCSD(T), (RO)-DLPNO pert. Triples
   Tobias Risthaus        : Range-separated hybrids, TD-DFT gradient, RPA, STAB
   Michael Roemelt        : Original ROCIS implementation
   Masaaki Saitow         : Open-shell DLPNO-CCSD energy and density
   Barbara Sandhoefer     : DKH picture change effects
   Avijit Sen             : IP-ROCIS
   Kantharuban Sivalingam : CASSCF convergence, NEVPT2, FIC-MRCI
   Bernardo de Souza      : ESD, SOC TD-DFT
   Georgi Stoychev        : AutoAux, RI-MP2 NMR
   Willem Van den Heuvel  : Paramagnetic NMR
   Boris Wezisla          : Elementary symmetry handling
   Frank Wennmohs         : Technical directorship


 We gratefully acknowledge several colleagues who have allowed us to
 interface, adapt or use parts of their codes:
   Stefan Grimme, W. Hujo, H. Kruse,             : VdW corrections, initial TS optimization,
                  C. Bannwarth                     DFT functionals, gCP, sTDA/sTD-DF
   Ed Valeev, F. Pavosevic, A. Kumar             : LibInt (2-el integral package), F12 methods
   Garnet Chan, S. Sharma, J. Yang, R. Olivares  : DMRG
   Ulf Ekstrom                                   : XCFun DFT Library
   Mihaly Kallay                                 : mrcc  (arbitrary order and MRCC methods)
   Andreas Klamt, Michael Diedenhofen            : otool_cosmo (COSMO solvation model)
   Jiri Pittner, Ondrej Demel                    : Mk-CCSD
   Frank Weinhold                                : gennbo (NPA and NBO analysis)
   Christopher J. Cramer and Donald G. Truhlar   : smd solvation model
   Lars Goerigk                                  : TD-DFT with DH, B97 family of functionals
   V. Asgeirsson, H. Jonsson                     : NEB implementation
   FAccTs GmbH                                   : IRC, NEB, NEB-TS, Multilevel, MM, QM/MM, CI optimization
   S Lehtola, MJT Oliveira, MAL Marques          : LibXC Library


 Your calculation uses the libint2 library for the computation of 2-el integrals
 For citations please refer to: http://libint.valeyev.net

 Your ORCA version has been built with support for libXC version: 4.2.3
 For citations please refer to: https://tddft.org/programs/libxc/

 This ORCA versions uses:
   CBLAS   interface :  Fast vector & matrix operations
   LAPACKE interface :  Fast linear algebra routines
   SCALAPACK package :  Parallel linear algebra routines


Your calculation utilizes the geometrical counterpoise correction gCP
Please cite in your paper:
H.Kruse, S. Grimme J.Chem.Phys., 136, (2012), 154101 
   

Your calculation utilizes the atom-pairwise dispersion correction
with the Becke-Johnson damping scheme (D3BJ)
Cite in your paper:
S.Grimme, S.Ehrlich, L.Goerigk, J Comput Chem, (2011), 32, 1456–1465 
S.Grimme, J.Antony, S.Ehrlich and H.Krieg, J.Chem.Phys., 132, (2010), 154104 
   

Your calculation utilizes the SMD solvation module
Please cite in your paper:
A.V. Marenich, C.J. Cramer, D.G. Truhlar J. Phys. Chem. B, 113, (2009), 6378 

----- Orbital basis set information -----
Your calculation utilizes the basis: MINIX,
   a combination of small basis sets by S. Grimme (see manual for definitions).

================================================================================
                                        WARNINGS
                       Please study these warnings very carefully!
================================================================================


WARNING: your system is open-shell and RHF/RKS was chosen
  ===> : WILL SWITCH to UHF/UKS


INFO   : the flag for use of LIBINT has been found!

================================================================================
                                       INPUT FILE
================================================================================
NAME = HKNLQKKMH.inp
|  1> !HF-3c CPCM KDIIS SmallPrint
|  2> %PAL NPROCS 15 END
|  3> %maxcore 10000
|  4> %CPCM
|  5> SMD TRUE
|  6> SMDSOLVENT "WATER"
|  7> END
|  8> 
|  9> %scf
| 10> SCFmode Direct
| 11> maxiter 10000
| 12> 
| 13> end
| 14> 
| 15> %geom
| 16> 
| 17> Constraints
| 18> {C 2 C}
| 19> {C 21 C}
| 20> {C 43 C}
| 21> {C 57 C}
| 22> {C 76 C}
| 23> {C 93 C}
| 24> {C 115 C}
| 25> {C 137 C}
| 26> {C 154 C}
| 27> 
| 28> end
| 29> 
| 30> maxiter 10000
| 31> 
| 32> end
| 33> 
| 34> * xyz 0 2
| 35>    N        0.00000         0.00000         0.00000
| 36>    C        1.46145         0.00000         0.00000
| 37>    C        1.94774         0.00000         1.45615
| 38>    O        1.18426         0.00000         2.41946
| 39>    C        2.04411         1.20336         -0.76878
| 40>    H        2.63381         1.85004         -0.10703
| 41>    H        1.24387         1.83827         -1.17112
| 42>    C        2.90609         0.76454         -1.90397
| 43>    N        2.40386         0.09306         -2.99477
| 44>    C        3.45453         -0.18863         -3.81870
| 45>    H        3.33445         -0.73115         -4.74678
| 46>    N        4.58505         0.27510         -3.33539
| 47>    C        4.25427         0.88487         -2.15432
| 48>    H        5.00749         1.36841         -1.54511
| 49>    H        1.43192         -0.17656         -3.13345
| 50>    H        -0.46323         0.13431         0.89571
| 51>    H        1.77077         -0.95781         -0.43895
| 52>    H        -0.34000         0.08381         -0.95801
| 53>    H        -0.34000         0.94706         -0.16699
| 54>    N        3.26069         -0.00000         1.72406
| 55>    C        3.72296         0.00022         3.10830
| 56>    C        5.25957         0.00016         3.05115
| 57>    O        5.89478         -0.00005         1.99805
| 58>    C        3.17221         -1.22220         3.85582
| 59>    C        3.49760         -1.23091         5.35214
| 60>    C        2.76820         -2.36936         6.07164
| 61>    C        3.16412         -2.43597         7.54599
| 62>    N        2.43343         -3.50207         8.21876
| 63>    H        3.37443         0.85767         3.64516
| 64>    H        3.56358         -2.10444         3.39388
| 65>    H        2.11168         -1.22213         3.71379
| 66>    H        3.21324         -0.29072         5.77650
| 67>    H        4.55447         -1.35132         5.46806
| 68>    H        3.00258         -3.29454         5.58790
| 69>    H        1.71448         -2.20937         5.97690
| 70>    H        2.94242         -1.49942         8.01356
| 71>    H        4.21673         -2.61502         7.61570
| 72>    H        2.75555         -3.57872         9.18352
| 73>    H        2.64374         -4.39381         7.77046
| 74>    H        1.43137         -3.32635         8.14527
| 75>    H        3.96942         -0.42893         1.12898
| 76>    N        5.97225         0.00033         4.18591
| 77>    C        7.43639         0.00004         4.13145
| 78>    C        7.91160         0.00034         5.59720
| 79>    O        7.13251         0.00074         6.55118
| 80>    C        7.95849         1.23135         3.39168
| 81>    H        7.42853         1.35815         2.43982
| 82>    H        7.79301         2.13768         3.98703
| 83>    C        9.43051         1.12569         3.07095
| 84>    O        10.13038         0.14970         3.31801
| 85>    N        9.96310         2.24117         2.49542
| 86>    H        9.40510         3.03490         2.21097
| 87>    H        10.94114         2.22225         2.23493
| 88>    H        7.75510         -0.93170         3.64914
| 89>    H        5.54436         0.20393         5.08631
| 90>    N        9.22213         0.00018         5.87665
| 91>    C        9.67340         0.00068         7.26855
| 92>    C        11.20543         0.00032         7.19111
| 93>    O        11.82544         -0.00028         6.12917
| 94>    H        9.31914         0.92813         7.72956
| 95>    H        9.81092         -0.46910         5.19489
| 96>    C        9.11670         -1.23329         7.99617
| 97>    H        8.04249         -1.29769         7.77117
| 98>    H        9.55479         -2.14372         7.56474
| 99>    C        9.24541         -1.29469         9.53248
|100>    H        8.54883         -2.07891         9.86092
|101>    C        8.81857         -0.00348         10.22754
|102>    H        8.75435         -0.15487         11.31059
|103>    H        7.83290         0.32070         9.87783
|104>    H        9.53074         0.80862         10.05263
|105>    C        10.62937         -1.73661         10.00503
|106>    H        10.60977         -1.95891         11.07791
|107>    H        11.38739         -0.96691         9.85042
|108>    H        10.94980         -2.64598         9.48627
|109>    N        11.93316         0.00064         8.31629
|110>    C        13.38897         0.00007         8.24270
|111>    C        13.90002         0.00065         9.69274
|112>    O        13.15690         0.00144         10.67175
|113>    C        13.88445         1.22606         7.46792
|114>    C        15.36988         1.15907         7.11506
|115>    C        15.79974         2.33611         6.26535
|116>    O        15.07998         3.27598         5.95519
|117>    N        17.10279         2.28947         5.86484
|118>    H        13.70856         -0.92386         7.74716
|119>    H        11.50400         0.47877         9.10353
|120>    H        13.68560         2.13913         8.04394
|121>    H        13.30671         1.32414         6.53854
|122>    H        15.58328         0.23786         6.56172
|123>    H        15.98168         1.16891         8.02347
|124>    H        17.44144         3.04918         5.28819
|125>    H        17.72598         1.52458         6.07837
|126>    N        15.21721         0.00030         9.93891
|127>    C        15.70230         0.00107         11.31533
|128>    C        17.23776         0.00041         11.23278
|129>    O        17.85547         -0.00058         10.16933
|130>    C        15.16353         -1.22074         12.07249
|131>    C        15.51361         -1.22879         13.56323
|132>    C        14.79579         -2.36660         14.29529
|133>    C        15.21600         -2.43259         15.76293
|134>    N        14.49614         -3.49806         16.44825
|135>    H        15.36301         0.85893         11.85742
|136>    H        15.54689         -2.10337         11.60462
|137>    H        14.10080         -1.22035         11.94801
|138>    H        15.23665         -0.28828         13.99174
|139>    H        16.57220         -1.34954         13.66173
|140>    H        15.02180         -3.29212         13.80824
|141>    H        13.74070         -2.20627         14.21790
|142>    H        15.00240         -1.49571         16.23361
|143>    H        16.26955         -2.61199         15.81533
|144>    H        14.83414         -3.57433         17.40760
|145>    H        14.69868         -4.39011         15.99701
|146>    H        13.49307         -3.32200         16.39124
|147>    H        15.91585         -0.42920         9.33243
|148>    N        17.96909         0.00090         12.35561
|149>    C        19.42638         0.00005         12.27726
|150>    C        19.93749         0.00092         13.72750
|151>    O        19.19123         0.00211         14.70505
|152>    C        19.91990         1.22172         11.48963
|153>    C        21.43117         1.22965         11.24280
|154>    C        21.83301         2.36729         10.29935
|155>    C        23.34977         2.43317         10.12614
|156>    N        23.70763         3.49848         9.19870
|157>    H        19.79740         -0.85791         11.75654
|158>    H        19.63431         2.10445         12.02267
|159>    H        19.39835         1.22120         10.55535
|160>    H        21.72109         0.28906         10.82313
|161>    H        21.92715         1.35052         12.18317
|162>    H        21.46951         3.29289         10.69434
|163>    H        21.35788         2.20682         9.35415
|164>    H        23.70288         1.49622         9.74889
|165>    H        23.80122         2.61271         11.07949
|166>    H        24.72331         3.57469         9.14399
|167>    H        23.36824         4.39061         9.55832
|168>    H        23.27123         3.32230         8.29377
|169>    H        17.67602         0.43056         13.23305
|170>    N        21.25468         0.00040         13.97367
|171>    C        21.73954         0.00146         15.34940
|172>    C        23.27477         0.00049         15.27008
|173>    O        23.89467         -0.00089         14.20854
|174>    C        21.21462         -1.22600         16.10678
|175>    C        21.38284         -1.09471         17.61918
|176>    S        20.67048         -2.54866         18.45453
|177>    C        20.91696         -2.02786         20.16881
|178>    H        21.40269         0.92785         15.82968
|179>    H        21.72975         -2.12752         15.74778
|180>    H        20.14931         -1.35916         15.87562
|181>    H        20.87226         -0.19484         17.97766
|182>    H        22.43923         -1.03318         17.89219
|183>    H        21.97956         -1.86909         20.36996
|184>    H        20.54880         -2.80892         20.83924
|185>    H        20.36223         -1.10769         20.36986
|186>    H        21.83855         -0.44457         13.27098
|187>    N        24.00376         0.00116         16.39444
|188>    C        25.46327         0.00003         16.31903
|189>    C        26.02404         0.00114         17.74815
|190>    O        25.31128         0.00272         18.74957
|191>    C        26.00635         1.20215         15.51994
|192>    H        26.62987         1.84905         16.14969
|193>    H        25.18688         1.83726         15.15875
|194>    C        26.80829         0.76150         14.34225
|195>    N        26.24996         0.08929         13.27953
|196>    C        27.25651         -0.19406         12.40279
|197>    H        27.08831         -0.73744         11.48271
|198>    N        28.41080         0.26929         12.82663
|199>    C        28.14184         0.88052         14.02254
|200>    H        28.92584         1.36410         14.59157
|201>    H        25.27196         -0.17972         13.19147
|202>    H        23.58746         0.13675         17.31272
|203>    H        25.74882         -0.95848         15.86573
|204>    O        27.36923         0.00030         17.87335
|205> *
|206> 
|207>                          ****END OF INPUT****
================================================================================

                       ****************************
                       * Single Point Calculation *
                       ****************************

---------------------------------
CARTESIAN COORDINATES (ANGSTROEM)
---------------------------------
  N      0.000000    0.000000    0.000000
  C      1.461450    0.000000    0.000000
  C      1.947740    0.000000    1.456150
  O      1.184260    0.000000    2.419460
  C      2.044110    1.203360   -0.768780
  H      2.633810    1.850040   -0.107030
  H      1.243870    1.838270   -1.171120
  C      2.906090    0.764540   -1.903970
  N      2.403860    0.093060   -2.994770
  C      3.454530   -0.188630   -3.818700
  H      3.334450   -0.731150   -4.746780
  N      4.585050    0.275100   -3.335390
  C      4.254270    0.884870   -2.154320
  H      5.007490    1.368410   -1.545110
  H      1.431920   -0.176560   -3.133450
  H     -0.463230    0.134310    0.895710
  H      1.770770   -0.957810   -0.438950
  H     -0.340000    0.083810   -0.958010
  H     -0.340000    0.947060   -0.166990
  N      3.260690   -0.000000    1.724060
  C      3.722960    0.000220    3.108300
  C      5.259570    0.000160    3.051150
  O      5.894780   -0.000050    1.998050
  C      3.172210   -1.222200    3.855820
  C      3.497600   -1.230910    5.352140
  C      2.768200   -2.369360    6.071640
  C      3.164120   -2.435970    7.545990
  N      2.433430   -3.502070    8.218760
  H      3.374430    0.857670    3.645160
  H      3.563580   -2.104440    3.393880
  H      2.111680   -1.222130    3.713790
  H      3.213240   -0.290720    5.776500
  H      4.554470   -1.351320    5.468060
  H      3.002580   -3.294540    5.587900
  H      1.714480   -2.209370    5.976900
  H      2.942420   -1.499420    8.013560
  H      4.216730   -2.615020    7.615700
  H      2.755550   -3.578720    9.183520
  H      2.643740   -4.393810    7.770460
  H      1.431370   -3.326350    8.145270
  H      3.969420   -0.428930    1.128980
  N      5.972250    0.000330    4.185910
  C      7.436390    0.000040    4.131450
  C      7.911600    0.000340    5.597200
  O      7.132510    0.000740    6.551180
  C      7.958490    1.231350    3.391680
  H      7.428530    1.358150    2.439820
  H      7.793010    2.137680    3.987030
  C      9.430510    1.125690    3.070950
  O     10.130380    0.149700    3.318010
  N      9.963100    2.241170    2.495420
  H      9.405100    3.034900    2.210970
  H     10.941140    2.222250    2.234930
  H      7.755100   -0.931700    3.649140
  H      5.544360    0.203930    5.086310
  N      9.222130    0.000180    5.876650
  C      9.673400    0.000680    7.268550
  C     11.205430    0.000320    7.191110
  O     11.825440   -0.000280    6.129170
  H      9.319140    0.928130    7.729560
  H      9.810920   -0.469100    5.194890
  C      9.116700   -1.233290    7.996170
  H      8.042490   -1.297690    7.771170
  H      9.554790   -2.143720    7.564740
  C      9.245410   -1.294690    9.532480
  H      8.548830   -2.078910    9.860920
  C      8.818570   -0.003480   10.227540
  H      8.754350   -0.154870   11.310590
  H      7.832900    0.320700    9.877830
  H      9.530740    0.808620   10.052630
  C     10.629370   -1.736610   10.005030
  H     10.609770   -1.958910   11.077910
  H     11.387390   -0.966910    9.850420
  H     10.949800   -2.645980    9.486270
  N     11.933160    0.000640    8.316290
  C     13.388970    0.000070    8.242700
  C     13.900020    0.000650    9.692740
  O     13.156900    0.001440   10.671750
  C     13.884450    1.226060    7.467920
  C     15.369880    1.159070    7.115060
  C     15.799740    2.336110    6.265350
  O     15.079980    3.275980    5.955190
  N     17.102790    2.289470    5.864840
  H     13.708560   -0.923860    7.747160
  H     11.504000    0.478770    9.103530
  H     13.685600    2.139130    8.043940
  H     13.306710    1.324140    6.538540
  H     15.583280    0.237860    6.561720
  H     15.981680    1.168910    8.023470
  H     17.441440    3.049180    5.288190
  H     17.725980    1.524580    6.078370
  N     15.217210    0.000300    9.938910
  C     15.702300    0.001070   11.315330
  C     17.237760    0.000410   11.232780
  O     17.855470   -0.000580   10.169330
  C     15.163530   -1.220740   12.072490
  C     15.513610   -1.228790   13.563230
  C     14.795790   -2.366600   14.295290
  C     15.216000   -2.432590   15.762930
  N     14.496140   -3.498060   16.448250
  H     15.363010    0.858930   11.857420
  H     15.546890   -2.103370   11.604620
  H     14.100800   -1.220350   11.948010
  H     15.236650   -0.288280   13.991740
  H     16.572200   -1.349540   13.661730
  H     15.021800   -3.292120   13.808240
  H     13.740700   -2.206270   14.217900
  H     15.002400   -1.495710   16.233610
  H     16.269550   -2.611990   15.815330
  H     14.834140   -3.574330   17.407600
  H     14.698680   -4.390110   15.997010
  H     13.493070   -3.322000   16.391240
  H     15.915850   -0.429200    9.332430
  N     17.969090    0.000900   12.355610
  C     19.426380    0.000050   12.277260
  C     19.937490    0.000920   13.727500
  O     19.191230    0.002110   14.705050
  C     19.919900    1.221720   11.489630
  C     21.431170    1.229650   11.242800
  C     21.833010    2.367290   10.299350
  C     23.349770    2.433170   10.126140
  N     23.707630    3.498480    9.198700
  H     19.797400   -0.857910   11.756540
  H     19.634310    2.104450   12.022670
  H     19.398350    1.221200   10.555350
  H     21.721090    0.289060   10.823130
  H     21.927150    1.350520   12.183170
  H     21.469510    3.292890   10.694340
  H     21.357880    2.206820    9.354150
  H     23.702880    1.496220    9.748890
  H     23.801220    2.612710   11.079490
  H     24.723310    3.574690    9.143990
  H     23.368240    4.390610    9.558320
  H     23.271230    3.322300    8.293770
  H     17.676020    0.430560   13.233050
  N     21.254680    0.000400   13.973670
  C     21.739540    0.001460   15.349400
  C     23.274770    0.000490   15.270080
  O     23.894670   -0.000890   14.208540
  C     21.214620   -1.226000   16.106780
  C     21.382840   -1.094710   17.619180
  S     20.670480   -2.548660   18.454530
  C     20.916960   -2.027860   20.168810
  H     21.402690    0.927850   15.829680
  H     21.729750   -2.127520   15.747780
  H     20.149310   -1.359160   15.875620
  H     20.872260   -0.194840   17.977660
  H     22.439230   -1.033180   17.892190
  H     21.979560   -1.869090   20.369960
  H     20.548800   -2.808920   20.839240
  H     20.362230   -1.107690   20.369860
  H     21.838550   -0.444570   13.270980
  N     24.003760    0.001160   16.394440
  C     25.463270    0.000030   16.319030
  C     26.024040    0.001140   17.748150
  O     25.311280    0.002720   18.749570
  C     26.006350    1.202150   15.519940
  H     26.629870    1.849050   16.149690
  H     25.186880    1.837260   15.158750
  C     26.808290    0.761500   14.342250
  N     26.249960    0.089290   13.279530
  C     27.256510   -0.194060   12.402790
  H     27.088310   -0.737440   11.482710
  N     28.410800    0.269290   12.826630
  C     28.141840    0.880520   14.022540
  H     28.925840    1.364100   14.591570
  H     25.271960   -0.179720   13.191470
  H     23.587460    0.136750   17.312720
  H     25.748820   -0.958480   15.865730
  O     27.369230    0.000300   17.873350

----------------------------
CARTESIAN COORDINATES (A.U.)
----------------------------
  NO LB      ZA    FRAG     MASS         X           Y           Z
   0 N     7.0000    0    14.007    0.000000    0.000000    0.000000
   1 C     6.0000    0    12.011    2.761740    0.000000    0.000000
   2 C     6.0000    0    12.011    3.680695    0.000000    2.751725
   3 O     8.0000    0    15.999    2.237927    0.000000    4.572117
   4 C     6.0000    0    12.011    3.862808    2.274021   -1.452784
   5 H     1.0000    0     1.008    4.977180    3.496069   -0.202257
   6 H     1.0000    0     1.008    2.350574    3.473827   -2.213096
   7 C     6.0000    0    12.011    5.491714    1.444771   -3.597982
   8 N     7.0000    0    14.007    4.542637    0.175858   -5.659295
   9 C     6.0000    0    12.011    6.528116   -0.356459   -7.216297
  10 H     1.0000    0     1.008    6.301197   -1.381673   -8.970114
  11 N     7.0000    0    14.007    8.664489    0.519864   -6.302974
  12 C     6.0000    0    12.011    8.039405    1.672162   -4.071075
  13 H     1.0000    0     1.008    9.462785    2.585920   -2.919835
  14 H     1.0000    0     1.008    2.705937   -0.333650   -5.921362
  15 H     1.0000    0     1.008   -0.875378    0.253809    1.692647
  16 H     1.0000    0     1.008    3.346270   -1.809999   -0.829495
  17 H     1.0000    0     1.008   -0.642507    0.158378   -1.810377
  18 H     1.0000    0     1.008   -0.642507    1.789684   -0.315565
  19 N     7.0000    0    14.007    6.161811   -0.000000    3.258001
  20 C     6.0000    0    12.011    7.035375    0.000416    5.873836
  21 C     6.0000    0    12.011    9.939147    0.000302    5.765838
  22 O     8.0000    0    15.999   11.139520   -0.000094    3.775767
  23 C     6.0000    0    12.011    5.994608   -2.309623    7.286444
  24 C     6.0000    0    12.011    6.609506   -2.326083   10.114079
  25 C     6.0000    0    12.011    5.231140   -4.477442   11.473737
  26 C     6.0000    0    12.011    5.979320   -4.603316   14.259855
  27 N     7.0000    0    14.007    4.598516   -6.617953   15.531206
  28 H     1.0000    0     1.008    6.376749    1.620761    6.888354
  29 H     1.0000    0     1.008    6.734190   -3.976815    6.413504
  30 H     1.0000    0     1.008    3.990497   -2.309491    7.018046
  31 H     1.0000    0     1.008    6.072144   -0.549381   10.916003
  32 H     1.0000    0     1.008    8.606701   -2.553625   10.333136
  33 H     1.0000    0     1.008    5.674054   -6.225778   10.559601
  34 H     1.0000    0     1.008    3.239898   -4.175104   11.294704
  35 H     1.0000    0     1.008    5.560368   -2.833493   15.143434
  36 H     1.0000    0     1.008    7.968465   -4.941672   14.391587
  37 H     1.0000    0     1.008    5.207235   -6.762801   17.354338
  38 H     1.0000    0     1.008    4.995945   -8.303098   14.684041
  39 H     1.0000    0     1.008    2.704897   -6.285891   15.392330
  40 H     1.0000    0     1.008    7.501117   -0.810560    2.133463
  41 N     7.0000    0    14.007   11.285917    0.000624    7.910224
  42 C     6.0000    0    12.011   14.052741    0.000076    7.807309
  43 C     6.0000    0    12.011   14.950757    0.000643   10.577175
  44 O     8.0000    0    15.999   13.478491    0.001398   12.379936
  45 C     6.0000    0    12.011   15.039367    2.326914    6.409346
  46 H     1.0000    0     1.008   14.037887    2.566532    4.610592
  47 H     1.0000    0     1.008   14.726655    4.039630    7.534395
  48 C     6.0000    0    12.011   17.821081    2.127246    5.803254
  49 O     8.0000    0    15.999   19.143644    0.282892    6.270130
  50 N     7.0000    0    14.007   18.827530    4.235198    4.715660
  51 H     1.0000    0     1.008   17.773063    5.735130    4.178128
  52 H     1.0000    0     1.008   20.675758    4.199444    4.223406
  53 H     1.0000    0     1.008   14.655015   -1.760658    6.895875
  54 H     1.0000    0     1.008   10.477322    0.385372    9.611733
  55 N     7.0000    0    14.007   17.427300    0.000340   11.105259
  56 C     6.0000    0    12.011   18.280077    0.001285   13.735569
  57 C     6.0000    0    12.011   21.175194    0.000605   13.589228
  58 O     8.0000    0    15.999   22.346843   -0.000529   11.582453
  59 H     1.0000    0     1.008   17.610622    1.753912   14.606752
  60 H     1.0000    0     1.008   18.539952   -0.886471    9.816919
  61 C     6.0000    0    12.011   17.228066   -2.330580   15.110571
  62 H     1.0000    0     1.008   15.198104   -2.452279   14.685383
  63 H     1.0000    0     1.008   18.055936   -4.051044   14.295287
  64 C     6.0000    0    12.011   17.471293   -2.446610   18.013777
  65 H     1.0000    0     1.008   16.154947   -3.928571   18.634438
  66 C     6.0000    0    12.011   16.664682   -0.006576   19.327250
  67 H     1.0000    0     1.008   16.543324   -0.292662   21.373918
  68 H     1.0000    0     1.008   14.802036    0.606035   18.666393
  69 H     1.0000    0     1.008   18.010488    1.528070   18.996718
  70 C     6.0000    0    12.011   20.086598   -3.281717   18.906767
  71 H     1.0000    0     1.008   20.049560   -3.701803   20.934216
  72 H     1.0000    0     1.008   21.519048   -1.827195   18.614596
  73 H     1.0000    0     1.008   20.692123   -5.000178   17.926452
  74 N     7.0000    0    14.007   22.550404    0.001209   15.715511
  75 C     6.0000    0    12.011   25.301487    0.000132   15.576446
  76 C     6.0000    0    12.011   26.267231    0.001228   18.316624
  77 O     8.0000    0    15.999   24.862938    0.002721   20.166685
  78 C     6.0000    0    12.011   26.237808    2.316918   14.112324
  79 C     6.0000    0    12.011   29.044864    2.190325   13.445515
  80 C     6.0000    0    12.011   29.857182    4.414608   11.839796
  81 O     8.0000    0    15.999   28.497032    6.190705   11.253678
  82 N     7.0000    0    14.007   32.319589    4.326471   11.082941
  83 H     1.0000    0     1.008   25.905424   -1.745842   14.640011
  84 H     1.0000    0     1.008   21.739409    0.904744   17.203179
  85 H     1.0000    0     1.008   25.862036    4.042370   15.200844
  86 H     1.0000    0     1.008   25.146038    2.502262   12.356050
  87 H     1.0000    0     1.008   29.448131    0.449490   12.399854
  88 H     1.0000    0     1.008   30.200998    2.208920   15.162161
  89 H     1.0000    0     1.008   32.959545    5.762115    9.993231
  90 H     1.0000    0     1.008   33.497248    2.881039   11.486455
  91 N     7.0000    0    14.007   28.756359    0.000567   18.781818
  92 C     6.0000    0    12.011   29.673047    0.002022   21.382875
  93 C     6.0000    0    12.011   32.574646    0.000775   21.226878
  94 O     8.0000    0    15.999   33.741948   -0.001096   19.217249
  95 C     6.0000    0    12.011   28.654919   -2.306864   22.813700
  96 C     6.0000    0    12.011   29.316474   -2.322077   25.630790
  97 C     6.0000    0    12.011   27.959991   -4.472226   27.014183
  98 C     6.0000    0    12.011   28.754073   -4.596929   29.787621
  99 N     7.0000    0    14.007   27.393735   -6.610375   31.082688
 100 H     1.0000    0     1.008   29.031881    1.623142   22.407276
 101 H     1.0000    0     1.008   29.379364   -3.974793   21.929554
 102 H     1.0000    0     1.008   26.646650   -2.306127   22.578467
 103 H     1.0000    0     1.008   28.793096   -0.544770   26.440557
 104 H     1.0000    0     1.008   31.316919   -2.550261   25.816928
 105 H     1.0000    0     1.008   28.387088   -6.221205   26.093792
 106 H     1.0000    0     1.008   25.966160   -4.169246   26.867937
 107 H     1.0000    0     1.008   28.350427   -2.826482   30.677077
 108 H     1.0000    0     1.008   30.744994   -4.935946   29.886642
 109 H     1.0000    0     1.008   28.032462   -6.754505   32.895597
 110 H     1.0000    0     1.008   27.776480   -8.296106   30.229968
 111 H     1.0000    0     1.008   25.498207   -6.277670   30.974955
 112 H     1.0000    0     1.008   30.076598   -0.811070   17.635737
 113 N     7.0000    0    14.007   33.956659    0.001701   23.348719
 114 C     6.0000    0    12.011   36.710538    0.000094   23.200659
 115 C     6.0000    0    12.011   37.676396    0.001739   25.941216
 116 O     8.0000    0    15.999   36.266169    0.003987   27.788517
 117 C     6.0000    0    12.011   37.643156    2.308716   21.712254
 118 C     6.0000    0    12.011   40.499042    2.323702   21.245813
 119 C     6.0000    0    12.011   41.258410    4.473530   19.462951
 120 C     6.0000    0    12.011   44.124671    4.598025   19.135631
 121 N     7.0000    0    14.007   44.800928    6.611169   17.383024
 122 H     1.0000    0     1.008   37.411664   -1.621215   22.216641
 123 H     1.0000    0     1.008   37.103469    3.976834   22.719554
 124 H     1.0000    0     1.008   36.657569    2.307734   19.946721
 125 H     1.0000    0     1.008   41.046911    0.546244   20.452752
 126 H     1.0000    0     1.008   41.436308    2.552113   23.022855
 127 H     1.0000    0     1.008   40.571494    6.222660   20.209374
 128 H     1.0000    0     1.008   40.360544    4.170285   17.676782
 129 H     1.0000    0     1.008   44.791952    2.827446   18.422732
 130 H     1.0000    0     1.008   44.977787    4.937306   20.937202
 131 H     1.0000    0     1.008   46.720285    6.755185   17.279637
 132 H     1.0000    0     1.008   44.159574    8.297050   18.062607
 133 H     1.0000    0     1.008   43.976251    6.278237   15.672954
 134 H     1.0000    0     1.008   33.402837    0.813640   25.006840
 135 N     7.0000    0    14.007   40.165524    0.000756   26.406409
 136 C     6.0000    0    12.011   41.081777    0.002759   29.006162
 137 C     6.0000    0    12.011   43.982941    0.000926   28.856269
 138 O     8.0000    0    15.999   45.154382   -0.001682   26.850249
 139 C     6.0000    0    12.011   40.089822   -2.316804   30.437403
 140 C     6.0000    0    12.011   40.407712   -2.068702   33.295425
 141 S    16.0000    0    32.060   39.061546   -4.816269   34.874008
 142 C     6.0000    0    12.011   39.527326   -3.832100   38.113527
 143 H     1.0000    0     1.008   40.445223    1.753382   29.913760
 144 H     1.0000    0     1.008   41.063276   -4.020430   29.758991
 145 H     1.0000    0     1.008   38.076678   -2.568440   30.000574
 146 H     1.0000    0     1.008   39.442855   -0.368194   33.972854
 147 H     1.0000    0     1.008   42.403999   -1.952427   33.811339
 148 H     1.0000    0     1.008   41.535349   -3.532068   38.493646
 149 H     1.0000    0     1.008   38.831604   -5.308090   39.380456
 150 H     1.0000    0     1.008   38.479038   -2.093231   38.493457
 151 H     1.0000    0     1.008   41.268879   -0.840116   25.078518
 152 N     7.0000    0    14.007   45.360533    0.002192   30.981002
 153 C     6.0000    0    12.011   48.118607    0.000057   30.838497
 154 C     6.0000    0    12.011   49.178308    0.002154   33.539143
 155 O     8.0000    0    15.999   47.831387    0.005140   35.431552
 156 C     6.0000    0    12.011   49.144879    2.271734   29.328436
 157 H     1.0000    0     1.008   50.323161    3.494198   30.518491
 158 H     1.0000    0     1.008   47.596305    3.471918   28.645886
 159 C     6.0000    0    12.011   50.660326    1.439026   27.102925
 160 N     7.0000    0    14.007   49.605235    0.168734   25.094675
 161 C     6.0000    0    12.011   51.507339   -0.366720   23.437876
 162 H     1.0000    0     1.008   51.189487   -1.393560   21.699177
 163 N     7.0000    0    14.007   53.688631    0.508884   24.238818
 164 C     6.0000    0    12.011   53.180371    1.663942   26.498760
 165 H     1.0000    0     1.008   54.661916    2.577775   27.574071
 166 H     1.0000    0     1.008   47.757083   -0.339622   24.928266
 167 H     1.0000    0     1.008   44.573840    0.258420   32.716299
 168 H     1.0000    0     1.008   48.658218   -1.811265   29.981885
 169 O     8.0000    0    15.999   51.720349    0.000567   33.775737

--------------------------------
INTERNAL COORDINATES (ANGSTROEM)
--------------------------------
 N      0   0   0     0.000000000000     0.00000000     0.00000000
 C      1   0   0     1.461450000000     0.00000000     0.00000000
 C      2   1   0     1.535203825751   108.46705034     0.00000000
 O      3   2   1     1.229173651890   123.13404915     0.00000000
 C      2   1   3     1.542268022621   112.19712055   237.42706994
 H      5   2   1     1.097202886845   111.24028393   117.65762040
 H      5   2   1     1.097894458179   111.00952425     0.15449122
 C      5   2   1     1.491384876181   111.60442919   239.34855475
 N      8   5   2     1.375850647163   122.41774934    65.86697841
 C      9   8   5     1.364594207045   107.36071879   181.64955907
 H     10   9   8     1.081702197095   122.41863490   178.92627196
 N     10   9   8     1.314043203019   111.56098054   359.06026605
 C     12  10   9     1.369730340688   105.45507388   359.80727685
 H     13  12  10     1.082722551765   121.06297386   180.67549538
 H      9   8   5     1.018132825519   125.85277034   359.16782239
 H      1   2   3     1.017309005711   117.08735136     8.52785658
 H      2   1   3     1.098069196818   106.36136092   114.62127838
 H      1   2   3     1.020003566758   109.47114980   175.00029763
 H      1   2   3     1.020004070433   109.47113980    99.99986914
 N      3   2   1     1.340005026334   120.00003797   180.00000000
 C     20   3   2     1.459388220762   119.99984300   179.99002660
 C     21  20   3     1.537672402757   106.33687736   180.00012519
 O     22  21  20     1.229842021643   123.22756288     0.00000000
 C     21  20   3     1.535064288328   110.37251818    58.16474413
 C     24  21  20     1.531315793231   113.83641549   185.56113205
 C     25  24  21     1.531591659843   111.22731394   172.43834735
 C     26  25  24     1.528037126840   111.23998461   176.22998273
 N     27  26  25     1.457084952568   110.33214227   178.51601344
 H     21  20   3     1.070005758396   111.89115294   300.28598399
 H     24  21  20     1.070003017799   108.36877217    63.03250473
 H     24  21  20     1.069998320887   106.91268749   307.10887181
 H     25  24  21     1.069999652009   109.03016550    51.09911614
 H     25  24  21     1.070004771672   108.44427868   293.05895874
 H     26  25  24     1.069998319812   109.02670713    54.77055458
 H     26  25  24     1.069999208458   108.43652136   297.70502867
 H     27  26  25     1.069999297850   109.25590231    58.01274856
 H     27  26  25     1.070002896585   108.96840825   299.29206507
 H     28  27  26     1.019999203186   109.47121207   175.98163024
 H     28  27  26     1.020001673381   109.47122523    59.52586174
 H     28  27  26     1.020001246127   109.47157936   300.40222005
 H     20   3   2     1.019999688333   124.34411385   329.38206212
 N     22  21  20     1.339997413766   120.00067908   179.99997172
 C     42  22  21     1.465152522879   120.00046910   179.98948648
 C     43  42  22     1.540859401957   105.83299533   180.00012974
 O     44  43  42     1.231689582850   122.79922226     0.00000000
 C     43  42  22     1.528388818004   111.05089693    59.70560337
 H     46  43  42     1.096801395513   110.37340206   311.14718451
 H     46  43  42     1.096931776274   110.57364351    70.10606707
 C     46  43  42     1.510256484475   112.29529749   191.66955194
 O     49  46  43     1.226137488457   124.69716090     2.84477259
 N     49  46  43     1.363518433832   114.40063450   184.43287583
 H     51  49  46     1.011080172588   123.05256581   353.50452223
 H     51  49  46     1.012311833429   118.07971125   181.56675516
 H     43  42  22     1.096511936916   107.87702269   296.79083450
 H     42  22  21     1.017478732996   121.71906277   346.40571377
 N     44  43  42     1.339992988414   120.00033175   180.00061113
 C     56  44  43     1.463226049830   120.00043611   179.99027355
 C     57  56  44     1.533985985627   105.06959995   180.00000683
 O     58  57  56     1.229686677044   123.17205889     0.00000000
 H     57  56  44     1.094620422886   107.52412082   297.34533809
 H     56  44  43     1.015723426972   115.27781721   329.29419293
 C     57  56  44     1.536888972991   109.77768935    58.59756898
 H     62  57  56     1.099408697482   107.70180128   311.92069692
 H     62  57  56     1.098607062557   109.57308126    65.74554625
 C     62  57  56     1.542914333396   118.23863179   191.35255641
 H     65  62  57     1.099134904550   105.84662640   164.00528990
 C     65  62  57     1.527260309607   113.34058366    47.20253265
 H     67  65  62     1.095463574474   110.45623634   169.76555562
 H     67  65  62     1.094958951468   110.88789648    50.45607519
 H     67  65  62     1.094205660285   111.88974305   289.33776340
 C     65  62  57     1.527724474668   113.27055719   279.70071430
 H     71  65  62     1.095843485357   110.20082890   191.44068812
 H     71  65  62     1.091300445569   112.42005929    72.03899289
 H     71  65  62     1.094870366482   111.02800650   310.42913171
 N     58  57  56     1.340007868522   119.99979054   180.00033397
 C     75  58  57     1.457668881845   119.99967982   179.98965588
 C     76  75  58     1.537461687490   106.52061971   179.99954369
 O     77  76  75     1.229100703197   123.38517648     0.00000000
 C     76  75  58     1.532591256304   110.37067878    58.61842156
 C     79  76  75     1.528234316000   113.32211890   191.14961538
 C     80  79  76     1.514004579022   111.80672052   175.85521701
 O     81  80  79     1.223768483047   124.91311607     4.05931167
 N     81  80  79     1.364009843146   114.16989593   183.17827983
 H     76  75  58     1.096058531558   108.32240056   297.42500279
 H     75  58  57     1.016136516468   114.91538949   328.77748393
 H     79  76  75     1.097741858453   109.97059584    68.24142774
 H     79  76  75     1.098703953938   109.21026142   312.40872393
 H     80  79  76     1.095606033070   110.04717418    55.38568048
 H     80  79  76     1.095264713985   110.55120160   295.52343974
 H     83  81  80     1.012110828467   117.46920220   179.57467466
 H     83  81  80     1.009463990987   123.61129437     2.35014807
 N     77  76  75     1.339996002793   120.00031585   180.00002051
 C     92  77  76     1.459398820542   119.99981210   179.99005196
 C     93  92  77     1.537677583143   106.33651087   180.00024580
 O     94  93  92     1.229834349293   123.22776953     0.00000000
 C     93  92  77     1.535051808442   110.37238614    58.16434822
 C     96  93  92     1.531315302771   113.83619785   185.56090378
 C     97  96  93     1.531596876499   111.22717702   172.43905005
 C     98  97  96     1.528037399346   111.24007674   176.23013315
 N     99  98  97     1.457082098888   110.33230229   178.51552243
 H     93  92  77     1.070001426074   111.89112329   300.28561184
 H     96  93  92     1.070001375420   108.36893544    63.03307499
 H     96  93  92     1.069995549243   106.91317312   307.10902745
 H     97  96  93     1.069993795216   109.03051434    51.09966175
 H     97  96  93     1.069997944204   108.44455417   293.05904212
 H     98  97  96     1.069993221007   109.02740414    54.77065681
 H     98  97  96     1.070004593028   108.43666167   297.70493801
 H     99  98  97     1.070004091955   109.25597455    58.01245916
 H     99  98  97     1.069998935747   108.96856573   299.29215100
 H    100  99  98     1.020006634978   109.47127472   175.98138458
 H    100  99  98     1.019996662593   109.47130158    59.52579712
 H    100  99  98     1.019998376763   109.47147021   300.40222565
 H     92  77  76     1.019993181350   124.34440354   329.38214125
 N     94  93  92     1.339996648466   119.99989141   180.00031922
 C    114  94  93     1.459394939384   119.99978297   179.98986352
 C    115 114  94     1.537670395956   106.33653123   179.99989645
 O    116 115 114     1.229841211783   123.22790762     0.00000000
 C    115 114  94     1.535057196394   110.37227849    58.16434174
 C    118 115 114     1.531314777144   113.83582081   185.56131797
 C    119 118 115     1.531599836021   111.22729671   172.43874893
 C    120 119 118     1.528038866031   111.24022398   176.23026185
 N    121 120 119     1.457084118814   110.33201096   178.51572893
 H    115 114  94     1.070000243178   111.89095412   300.28539110
 H    118 115 114     1.070002589997   108.36926032    63.03289860
 H    118 115 114     1.069997098734   106.91298000   307.10846245
 H    119 118 115     1.069993487550   109.03082017    51.09938025
 H    119 118 115     1.070000679532   108.44471654   293.05891333
 H    120 119 118     1.069992855163   109.02721882    54.77024246
 H    120 119 118     1.070001017663   108.43595546   297.70436791
 H    121 120 119     1.069990437854   109.25595470    58.01197169
 H    121 120 119     1.070008381556   108.96779700   299.29146710
 H    122 121 120     1.020003436563   109.47075011   175.98070564
 H    122 121 120     1.020003947737   109.47140113    59.52576842
 H    122 121 120     1.019991498641   109.47152273   300.40171309
 H    114  94  93     1.019999359853   124.34419021   329.38142766
 N    116 115 114     1.339996057979   119.99993497   179.99988688
 C    136 116 115     1.458671784913   120.00028518   179.98935475
 C    137 136 116     1.537278034774   106.45673256   179.99971680
 O    138 137 136     1.229286413331   123.24100555     0.00000000
 C    137 136 116     1.534869219966   110.55650111    58.74021723
 C    140 137 136     1.527379714577   112.47012937   194.84554624
 S    141 140 137     1.821877326990   110.02020616   177.39310888
 C    142 141 140     1.808518993210    98.71468767   183.97754418
 H    137 136 116     1.096510480114   108.15583911   297.31663978
 H    140 137 136     1.098625608340   109.55038507    72.15205016
 H    140 137 136     1.098203955238   108.95678071   315.82428565
 H    141 140 137     1.094972996790   110.08793462    57.40828510
 H    141 140 137     1.092831292149   111.01868249   296.83773951
 H    143 142 141     1.093063582506   110.41107438   300.09227945
 H    143 142 141     1.093193895931   109.24895000   180.77224713
 H    143 142 141     1.093096200844   110.34013825    61.53770841
 H    136 116 115     1.016206531124   115.97108808   330.91519349
 N    138 137 136     1.340004581559   120.00008439   180.00014142
 C    153 138 137     1.461457281312   119.99999067   179.99059120
 C    154 153 138     1.535202983126   108.46668843   180.00018697
 O    155 154 153     1.229175060925   123.13422665     0.00000000
 C    154 153 138     1.542262367076   112.19717807    57.42732654
 H    157 154 153     1.097197276200   111.24056885   117.65736029
 H    157 154 153     1.097886154890   111.00961109     0.15396965
 C    157 154 153     1.491386577048   111.60420519   239.34856324
 N    160 157 154     1.375853361154   122.41780156    65.86675274
 C    161 160 157     1.364589005012   107.36071093   181.64981556
 H    162 161 160     1.081711731840   122.41868245   178.92651310
 N    162 161 160     1.314046792241   111.56104483   359.06017686
 C    164 162 161     1.369723447489   105.45484275   359.80754366
 H    165 164 162     1.082728385746   121.06318266   180.67517247
 H    161 160 157     1.018137978714   125.85283577   359.16800685
 H    153 138 137     1.017314354809   122.33269155   351.00098642
 H    154 153 138     1.098071542569   106.36026762   294.62064468
 O    155 154 153     1.351004027270   116.74175530   179.99977647

---------------------------
INTERNAL COORDINATES (A.U.)
---------------------------
 N      0   0   0     0.000000000000     0.00000000     0.00000000
 C      1   0   0     2.761740258419     0.00000000     0.00000000
 C      2   1   0     2.901114790417   108.46705034     0.00000000
 O      3   2   1     2.322801573103   123.13404915     0.00000000
 C      2   1   3     2.914464187858   112.19712055   237.42706994
 H      5   2   1     2.073412969484   111.24028393   117.65762040
 H      5   2   1     2.074719849908   111.00952425     0.15449122
 C      5   2   1     2.818308976253   111.60442919   239.34855475
 N      8   5   2     2.599980924317   122.41774934    65.86697841
 C      9   8   5     2.578709335250   107.36071879   181.64955907
 H     10   9   8     2.044120910970   122.41863490   178.92627196
 N     10   9   8     2.483181781846   111.56098054   359.06026605
 C     12  10   9     2.588415221222   105.45507388   359.80727685
 H     13  12  10     2.046049101856   121.06297386   180.67549538
 H      9   8   5     1.923992208187   125.85277034   359.16782239
 H      1   2   3     1.922435414365   117.08735136     8.52785658
 H      2   1   3     2.075050058080   106.36136092   114.62127838
 H      1   2   3     1.927527396796   109.47114980   175.00029763
 H      1   2   3     1.927528348603   109.47113980    99.99986914
 N      3   2   1     2.532242517849   120.00003797   180.00000000
 C     20   3   2     2.757844060312   119.99984300   179.99002660
 C     21  20   3     2.905779724899   106.33687736   180.00012519
 O     22  21  20     2.324064608894   123.22756288     0.00000000
 C     21  20   3     2.900851102903   110.37251818    58.16474413
 C     24  21  20     2.893767473756   113.83641549   185.56113205
 C     25  24  21     2.894288786101   111.22731394   172.43834735
 C     26  25  24     2.887571692191   111.23998461   176.22998273
 N     27  26  25     2.753491514211   110.33214227   178.51601344
 H     21  20   3     2.022017845087   111.89115294   300.28598399
 H     24  21  20     2.022012666110   108.36877217    63.03250473
 H     24  21  20     2.022003790231   106.91268749   307.10887181
 H     25  24  21     2.022006305689   109.03016550    51.09911614
 H     25  24  21     2.022015980448   108.44427868   293.05895874
 H     26  25  24     2.022003788200   109.02670713    54.77055458
 H     26  25  24     2.022005467497   108.43652136   297.70502867
 H     27  26  25     2.022005636425   109.25590231    58.01274856
 H     27  26  25     2.022012437048   108.96840825   299.29206507
 H     28  27  26     1.927519150839   109.47121207   175.98163024
 H     28  27  26     1.927523818831   109.47122523    59.52586174
 H     28  27  26     1.927523011438   109.47157936   300.40222005
 H     20   3   2     1.927520067635   124.34411385   329.38206212
 N     22  21  20     2.532228132181   120.00067908   179.99997172
 C     42  22  21     2.768737012666   120.00046910   179.98948648
 C     43  42  22     2.911802280577   105.83299533   180.00012974
 O     44  43  42     2.327555993589   122.79922226     0.00000000
 C     43  42  22     2.888236292175   111.05089693    59.70560337
 H     46  43  42     2.072654260823   110.37340206   311.14718451
 H     46  43  42     2.072900644754   110.57364351    70.10606707
 C     46  43  42     2.853971147637   112.29529749   191.66955194
 O     49  46  43     2.317064055718   124.69716090     2.84477259
 N     49  46  43     2.576676418496   114.40063450   184.43287583
 H     51  49  46     1.910664625629   123.05256581   353.50452223
 H     51  49  46     1.912992127308   118.07971125   181.56675516
 H     43  42  22     2.072107263347   107.87702269   296.79083450
 H     42  22  21     1.922756152452   121.71906277   346.40571377
 N     44  43  42     2.532219769478   120.00033175   180.00061113
 C     56  44  43     2.765096506197   120.00043611   179.99027355
 C     57  56  44     2.898813406108   105.06959995   180.00000683
 O     58  57  56     2.323771050145   123.17205889     0.00000000
 H     57  56  44     2.068532819852   107.52412082   297.34533809
 H     56  44  43     1.919439104785   115.27781721   329.29419293
 C     57  56  44     2.904299257196   109.77768935    58.59756898
 H     62  57  56     2.077581347493   107.70180128   311.92069692
 H     62  57  56     2.076066477024   109.57308126    65.74554625
 C     62  57  56     2.915685538221   118.23863179   191.35255641
 H     65  62  57     2.077063953833   105.84662640   164.00528990
 C     65  62  57     2.886103720364   113.34058366    47.20253265
 H     67  65  62     2.070126145443   110.45623634   169.76555562
 H     67  65  62     2.069172546160   110.88789648    50.45607519
 H     67  65  62     2.067749032125   111.88974305   289.33776340
 C     65  62  57     2.886980865211   113.27055719   279.70071430
 H     71  65  62     2.070844072967   110.20082890   191.44068812
 H     71  65  62     2.062258971952   112.42005929    72.03899289
 H     71  65  62     2.069005144797   111.02800650   310.42913171
 N     58  57  56     2.532247888806   119.99979054   180.00033397
 C     75  58  57     2.754594980627   119.99967982   179.98965588
 C     76  75  58     2.905381530753   106.52061971   179.99954369
 O     77  76  75     2.322663720053   123.38517648     0.00000000
 C     76  75  58     2.896177749657   110.37067878    58.61842156
 C     79  76  75     2.887944325700   113.32211890   191.14961538
 C     80  79  76     2.861054019855   111.80672052   175.85521701
 O     81  80  79     2.312587284284   124.91311607     4.05931167
 N     81  80  79     2.577605047519   114.16989593   183.17827983
 H     76  75  58     2.071250451392   108.32240056   297.42500279
 H     75  58  57     1.920219730802   114.91538949   328.77748393
 H     79  76  75     2.074431478218   109.97059584    68.24142774
 H     79  76  75     2.076249575200   109.21026142   312.40872393
 H     80  79  76     2.070395353175   110.04717418    55.38568048
 H     80  79  76     2.069750353579   110.55120160   295.52343974
 H     83  81  80     1.912612282979   117.46920220   179.57467466
 H     83  81  80     1.907610485021   123.61129437     2.35014807
 N     77  76  75     2.532225465827   120.00031585   180.00002051
 C     92  77  76     2.757864090992   119.99981210   179.99005196
 C     93  92  77     2.905789514410   106.33651087   180.00024580
 O     94  93  92     2.324050110252   123.22776953     0.00000000
 C     93  92  77     2.900827519335   110.37238614    58.16434822
 C     96  93  92     2.893766546919   113.83619785   185.56090378
 C     97  96  93     2.894298644151   111.22717702   172.43905005
 C     98  97  96     2.887572207153   111.24007674   176.23013315
 N     99  98  97     2.753486121538   110.33230229   178.51552243
 H     93  92  77     2.022009658185   111.89112329   300.28561184
 H     96  93  92     2.022009562462   108.36893544    63.03307499
 H     96  93  92     2.021998552584   106.91317312   307.10902745
 H     97  96  93     2.021995237953   109.03051434    51.09966175
 H     97  96  93     2.022003078404   108.44455417   293.05904212
 H     98  97  96     2.021994152855   109.02740414    54.77065681
 H     98  97  96     2.022015642860   108.43666167   297.70493801
 H     99  98  97     2.022014695970   109.25597455    58.01245916
 H     99  98  97     2.022004952149   108.96856573   299.29215100
 H    100  99  98     1.927533194892   109.47127472   175.98138458
 H    100  99  98     1.927514349814   109.47130158    59.52579712
 H    100  99  98     1.927517589127   109.47147021   300.40222565
 H     92  77  76     1.927507771218   124.34440354   329.38214125
 N     94  93  92     2.532226685973   119.99989141   180.00031922
 C    114  94  93     2.757856756667   119.99978297   179.98986352
 C    115 114  94     2.905775932595   106.33653123   179.99989645
 O    116 115 114     2.324063078480   123.22790762     0.00000000
 C    115 114  94     2.900837701089   110.37227849    58.16434174
 C    118 115 114     2.893765553629   113.83582081   185.56131797
 C    119 118 115     2.894304236839   111.22729671   172.43874893
 C    120 119 118     2.887574978785   111.24022398   176.23026185
 N    121 120 119     2.753489938644   110.33201096   178.51572893
 H    115 114  94     2.022007422835   111.89095412   300.28539110
 H    118 115 114     2.022011857681   108.36926032    63.03289860
 H    118 115 114     2.022001480698   106.91298000   307.10846245
 H    119 118 115     2.021994656549   109.03082017    51.09938025
 H    119 118 115     2.022008247426   108.44471654   293.05891333
 H    120 119 118     2.021993461511   109.02721882    54.77024246
 H    120 119 118     2.022008886400   108.43595546   297.70436791
 H    121 120 119     2.021988893459   109.25595470    58.01197169
 H    121 120 119     2.022022802141   108.96779700   299.29146710
 H    122 121 120     1.927527150762   109.47075011   175.98070564
 H    122 121 120     1.927528116742   109.47140113    59.52576842
 H    122 121 120     1.927504591359   109.47152273   300.40171309
 H    114  94  93     1.927519446897   124.34419021   329.38142766
 N    116 115 114     2.532225570115   119.99993497   179.99988688
 C    136 116 115     2.756490192763   120.00028518   179.98935475
 C    137 136 116     2.905034477416   106.45673256   179.99971680
 O    138 137 136     2.323014661346   123.24100555     0.00000000
 C    137 136 116     2.900482477122   110.55650111    58.74021723
 C    140 137 136     2.886329363057   112.47012937   194.84554624
 S    141 140 137     3.442849197611   110.02020616   177.39310888
 C    142 141 140     3.417605605161    98.71468767   183.97754418
 H    137 136 116     2.072104510390   108.15583911   297.31663978
 H    140 137 136     2.076101523475   109.55038507    72.15205016
 H    140 137 136     2.075304714589   108.95678071   315.82428565
 H    141 140 137     2.069199087973   110.08793462    57.40828510
 H    141 140 137     2.065151852741   111.01868249   296.83773951
 H    143 142 141     2.065590817898   110.41107438   300.09227945
 H    143 142 141     2.065837074583   109.24895000   180.77224713
 H    143 142 141     2.065652457625   110.34013825    61.53770841
 H    136 116 115     1.920352039327   115.97108808   330.91519349
 N    138 137 136     2.532241677347   120.00008439   180.00014142
 C    153 138 137     2.761754018105   119.99999067   179.99059120
 C    154 153 138     2.901113198088   108.46668843   180.00018697
 O    155 154 153     2.322804235794   123.13422665     0.00000000
 C    154 153 138     2.914453500427   112.19717807    57.42732654
 H    157 154 153     2.073402366902   111.24056885   117.65736029
 H    157 154 153     2.074704158967   111.00961109     0.15396965
 C    157 154 153     2.818312190428   111.60420519   239.34856324
 N    160 157 154     2.599986053017   122.41780156    65.86675274
 C    161 160 157     2.578699504833   107.36071093   181.64981556
 H    162 161 160     2.044138929027   122.41868245   178.92651310
 N    162 161 160     2.483188564494   111.56104483   359.06017686
 C    164 162 161     2.588402194964   105.45484275   359.80754366
 H    165 164 162     2.046060126482   121.06318266   180.67517247
 H    161 160 157     1.924001946314   125.85283577   359.16800685
 H    153 138 137     1.922445522695   122.33269155   351.00098642
 H    154 153 138     2.075054490908   106.36026762   294.62064468
 O    155 154 153     2.553027617365   116.74175530   179.99977647

---------------------
BASIS SET INFORMATION
---------------------
There are 5 groups of distinct atoms

 Group   1 Type N   : 6s3p contracted to 2s1p pattern {33/3}
 Group   2 Type C   : 6s3p contracted to 2s1p pattern {33/3}
 Group   3 Type O   : 6s3p contracted to 2s1p pattern {33/3}
 Group   4 Type H   : 3s contracted to 1s pattern {3}
 Group   5 Type S   : 9s6p1d contracted to 3s2p1d pattern {333/33/1}

Atom   0N    basis set group =>   1
Atom   1C    basis set group =>   2
Atom   2C    basis set group =>   2
Atom   3O    basis set group =>   3
Atom   4C    basis set group =>   2
Atom   5H    basis set group =>   4
Atom   6H    basis set group =>   4
Atom   7C    basis set group =>   2
Atom   8N    basis set group =>   1
Atom   9C    basis set group =>   2
Atom  10H    basis set group =>   4
Atom  11N    basis set group =>   1
Atom  12C    basis set group =>   2
Atom  13H    basis set group =>   4
Atom  14H    basis set group =>   4
Atom  15H    basis set group =>   4
Atom  16H    basis set group =>   4
Atom  17H    basis set group =>   4
Atom  18H    basis set group =>   4
Atom  19N    basis set group =>   1
Atom  20C    basis set group =>   2
Atom  21C    basis set group =>   2
Atom  22O    basis set group =>   3
Atom  23C    basis set group =>   2
Atom  24C    basis set group =>   2
Atom  25C    basis set group =>   2
Atom  26C    basis set group =>   2
Atom  27N    basis set group =>   1
Atom  28H    basis set group =>   4
Atom  29H    basis set group =>   4
Atom  30H    basis set group =>   4
Atom  31H    basis set group =>   4
Atom  32H    basis set group =>   4
Atom  33H    basis set group =>   4
Atom  34H    basis set group =>   4
Atom  35H    basis set group =>   4
Atom  36H    basis set group =>   4
Atom  37H    basis set group =>   4
Atom  38H    basis set group =>   4
Atom  39H    basis set group =>   4
Atom  40H    basis set group =>   4
Atom  41N    basis set group =>   1
Atom  42C    basis set group =>   2
Atom  43C    basis set group =>   2
Atom  44O    basis set group =>   3
Atom  45C    basis set group =>   2
Atom  46H    basis set group =>   4
Atom  47H    basis set group =>   4
Atom  48C    basis set group =>   2
Atom  49O    basis set group =>   3
Atom  50N    basis set group =>   1
Atom  51H    basis set group =>   4
Atom  52H    basis set group =>   4
Atom  53H    basis set group =>   4
Atom  54H    basis set group =>   4
Atom  55N    basis set group =>   1
Atom  56C    basis set group =>   2
Atom  57C    basis set group =>   2
Atom  58O    basis set group =>   3
Atom  59H    basis set group =>   4
Atom  60H    basis set group =>   4
Atom  61C    basis set group =>   2
Atom  62H    basis set group =>   4
Atom  63H    basis set group =>   4
Atom  64C    basis set group =>   2
Atom  65H    basis set group =>   4
Atom  66C    basis set group =>   2
Atom  67H    basis set group =>   4
Atom  68H    basis set group =>   4
Atom  69H    basis set group =>   4
Atom  70C    basis set group =>   2
Atom  71H    basis set group =>   4
Atom  72H    basis set group =>   4
Atom  73H    basis set group =>   4
Atom  74N    basis set group =>   1
Atom  75C    basis set group =>   2
Atom  76C    basis set group =>   2
Atom  77O    basis set group =>   3
Atom  78C    basis set group =>   2
Atom  79C    basis set group =>   2
Atom  80C    basis set group =>   2
Atom  81O    basis set group =>   3
Atom  82N    basis set group =>   1
Atom  83H    basis set group =>   4
Atom  84H    basis set group =>   4
Atom  85H    basis set group =>   4
Atom  86H    basis set group =>   4
Atom  87H    basis set group =>   4
Atom  88H    basis set group =>   4
Atom  89H    basis set group =>   4
Atom  90H    basis set group =>   4
Atom  91N    basis set group =>   1
Atom  92C    basis set group =>   2
Atom  93C    basis set group =>   2
Atom  94O    basis set group =>   3
Atom  95C    basis set group =>   2
Atom  96C    basis set group =>   2
Atom  97C    basis set group =>   2
Atom  98C    basis set group =>   2
Atom  99N    basis set group =>   1
Atom 100H    basis set group =>   4
Atom 101H    basis set group =>   4
Atom 102H    basis set group =>   4
Atom 103H    basis set group =>   4
Atom 104H    basis set group =>   4
Atom 105H    basis set group =>   4
Atom 106H    basis set group =>   4
Atom 107H    basis set group =>   4
Atom 108H    basis set group =>   4
Atom 109H    basis set group =>   4
Atom 110H    basis set group =>   4
Atom 111H    basis set group =>   4
Atom 112H    basis set group =>   4
Atom 113N    basis set group =>   1
Atom 114C    basis set group =>   2
Atom 115C    basis set group =>   2
Atom 116O    basis set group =>   3
Atom 117C    basis set group =>   2
Atom 118C    basis set group =>   2
Atom 119C    basis set group =>   2
Atom 120C    basis set group =>   2
Atom 121N    basis set group =>   1
Atom 122H    basis set group =>   4
Atom 123H    basis set group =>   4
Atom 124H    basis set group =>   4
Atom 125H    basis set group =>   4
Atom 126H    basis set group =>   4
Atom 127H    basis set group =>   4
Atom 128H    basis set group =>   4
Atom 129H    basis set group =>   4
Atom 130H    basis set group =>   4
Atom 131H    basis set group =>   4
Atom 132H    basis set group =>   4
Atom 133H    basis set group =>   4
Atom 134H    basis set group =>   4
Atom 135N    basis set group =>   1
Atom 136C    basis set group =>   2
Atom 137C    basis set group =>   2
Atom 138O    basis set group =>   3
Atom 139C    basis set group =>   2
Atom 140C    basis set group =>   2
Atom 141S    basis set group =>   5
Atom 142C    basis set group =>   2
Atom 143H    basis set group =>   4
Atom 144H    basis set group =>   4
Atom 145H    basis set group =>   4
Atom 146H    basis set group =>   4
Atom 147H    basis set group =>   4
Atom 148H    basis set group =>   4
Atom 149H    basis set group =>   4
Atom 150H    basis set group =>   4
Atom 151H    basis set group =>   4
Atom 152N    basis set group =>   1
Atom 153C    basis set group =>   2
Atom 154C    basis set group =>   2
Atom 155O    basis set group =>   3
Atom 156C    basis set group =>   2
Atom 157H    basis set group =>   4
Atom 158H    basis set group =>   4
Atom 159C    basis set group =>   2
Atom 160N    basis set group =>   1
Atom 161C    basis set group =>   2
Atom 162H    basis set group =>   4
Atom 163N    basis set group =>   1
Atom 164C    basis set group =>   2
Atom 165H    basis set group =>   4
Atom 166H    basis set group =>   4
Atom 167H    basis set group =>   4
Atom 168H    basis set group =>   4
Atom 169O    basis set group =>   3
--------------------------------------------------------------------------
WARNING: No preset parameters were found for the device that Open MPI
detected:

  Local host:            c0703a-s15
  Device name:           mlx5_0
  Device vendor ID:      0x02c9
  Device vendor part ID: 4123

Default device parameters will be used, which may result in lower
performance.  You can edit any of the files specified by the
btl_openib_device_param_files MCA parameter to set values for your
device.

NOTE: You can turn off this warning by setting the MCA parameter
      btl_openib_warn_no_device_params_found to 0.
--------------------------------------------------------------------------
--------------------------------------------------------------------------
WARNING: There was an error initializing an OpenFabrics device.

  Local host:   c0703a-s15
  Local device: mlx5_0
--------------------------------------------------------------------------


           ************************************************************
           *        Program running with 15 parallel MPI-processes    *
           *              working on a common directory               *
           ************************************************************
------------------------------------------------------------------------------
                           ORCA GTO INTEGRAL CALCULATION
------------------------------------------------------------------------------

                         BASIS SET STATISTICS AND STARTUP INFO

 # of primitive gaussian shells          ... 1003
 # of primitive gaussian functions       ... 1499
 # of contracted shells                  ...  335
 # of contracted basis functions         ...  503
 Highest angular momentum                ...    2
 Maximum contraction depth               ...    3
 Integral package used                   ... LIBINT
 Integral threshhold            Thresh   ...  1.000e-10
 Primitive cut-off              TCut     ...  1.000e-11


------------------------------ INTEGRAL EVALUATION ----------------------------


 * One electron integrals 
 Pre-screening matrix                    ... done
 Shell pair data                         ... done (   0.009 sec)

[c0703a-s15.ufhpc:93564] 14 more processes have sent help message help-mpi-btl-openib.txt / no device params found
[c0703a-s15.ufhpc:93564] Set MCA parameter "orte_base_help_aggregate" to 0 to see all help / error messages
[c0703a-s15.ufhpc:93564] 14 more processes have sent help message help-mpi-btl-openib.txt / error in device init
--------------------------------------------------------------------------
WARNING: No preset parameters were found for the device that Open MPI
detected:

  Local host:            c0703a-s15
  Device name:           mlx5_0
  Device vendor ID:      0x02c9
  Device vendor part ID: 4123

Default device parameters will be used, which may result in lower
performance.  You can edit any of the files specified by the
btl_openib_device_param_files MCA parameter to set values for your
device.

NOTE: You can turn off this warning by setting the MCA parameter
      btl_openib_warn_no_device_params_found to 0.
--------------------------------------------------------------------------
--------------------------------------------------------------------------
WARNING: There was an error initializing an OpenFabrics device.

  Local host:   c0703a-s15
  Local device: mlx5_0
--------------------------------------------------------------------------


           ************************************************************
           *        Program running with 15 parallel MPI-processes    *
           *              working on a common directory               *
           ************************************************************
-------------------------------------------------------------------------------
                                 ORCA SCF
-------------------------------------------------------------------------------

------------
SCF SETTINGS
------------
Hamiltonian:
 Ab initio Hamiltonian  Method          .... Hartree-Fock(GTOs)


General Settings:
 Integral files         IntName         .... HKNLQKKMH
 Hartree-Fock type      HFTyp           .... UHF
 Total Charge           Charge          ....    0
 Multiplicity           Mult            ....    2
 Number of Electrons    NEL             ....  627
 Basis Dimension        Dim             ....  503
 Nuclear Repulsion      ENuc            ....  13422.8221473259 Eh

Convergence Acceleration:
 DIIS                   CNVDIIS         .... off
 Newton-Raphson         CNVNR           .... off
 SOSCF                  CNVSOSCF        .... off
 Level Shifting         CNVShift        .... off
 Zerner damping         CNVZerner       .... off
 Static damping         CNVDamp         .... off
 Fernandez-Rico         CNVRico         .... off

SCF Procedure:
 Maximum # iterations   MaxIter         .... 10000
 SCF integral mode      SCFMode         .... Direct
   Integral package                     .... LIBINT
 Reset frequency        DirectResetFreq ....    20
 Integral Threshold     Thresh          ....  1.000e-10 Eh
 Primitive CutOff       TCut            ....  1.000e-11 Eh

Convergence Tolerance:
 Convergence Check Mode ConvCheckMode   .... All-Criteria
 Convergence forced     ConvForced      .... 0
 Energy Change          TolE            ....  1.000e-06 Eh
 Max Density Change     TolMaxP         ....  1.000e-05
 RMS Density Change     TolRMSP         ....  1.000e-06


Diagonalization of the overlap matrix:
Smallest eigenvalue                        ... 1.861e-01
Time for diagonalization                   ...    0.617 sec
Threshold for overlap eigenvalues          ... 1.000e-08
Number of eigenvalues below threshold      ... 0
Time for construction of square roots      ...    0.100 sec
Total time needed                          ...    0.718 sec

--------------------------------
INITIAL GUESS: MINIMAL BASIS EHT
--------------------------------
The minimal basis has 498 functions
EHT matrix was diagonalized
Basis set overlap was calculated now projecting the orbitals
Using GuessMode=FMatrix for the initial guess
C*T matrix was formed
Effective Fockian was calculated
Effective Fockian was diagonalized
Initial density was built
                      ------------------
                      INITIAL GUESS DONE
                      ------------------

--------------------
CPCM SOLVATION MODEL
--------------------
CPCM parameters:
  Epsilon                                         ...      78.3550
  Refrac                                          ...       1.3300
  Rsolv                                           ...       1.3000
  Surface type                                    ...    GEPOL SES
  Epsilon function type                           ...         CPCM
Solvent:                                     ... WATER
SMD-CDS solvent descriptors:
  Soln                                       ...    1.3328
  Soln25                                     ...    1.3323
  Sola                                       ...    0.0000
  Solb                                       ...    0.0000
  Solg                                       ...    0.0000
  Solc                                       ...    0.0000
  Solh                                       ...    0.0000
Radii:
 Radius for N  used is    3.5716 Bohr (=   1.8900 Ang.)
 Radius for C  used is    3.4960 Bohr (=   1.8500 Ang.)
 Radius for O  used is    2.8724 Bohr (=   1.5200 Ang.)
 Radius for H  used is    2.2677 Bohr (=   1.2000 Ang.)
 Radius for S  used is    4.7054 Bohr (=   2.4900 Ang.)
Calculating surface                               ...        [c0703a-s15.ufhpc:93636] 14 more processes have sent help message help-mpi-btl-openib.txt / no device params found
[c0703a-s15.ufhpc:93636] Set MCA parameter "orte_base_help_aggregate" to 0 to see all help / error messages
[c0703a-s15.ufhpc:93636] 14 more processes have sent help message help-mpi-btl-openib.txt / error in device init
done! (  0.9s)
GEPOL surface points                              ...         8611
GEPOL Volume                                      ...    8454.7217
GEPOL Surface-area                                ...    4236.7951
Calculating surface distance matrix               ...        done! (  0.5s)
Performing Cholesky decomposition & store         ...        done! (  6.3s)
Overall time for CPCM initialization              ...                 7.7s
--------------
SCF ITERATIONS
--------------
ITER       Energy         Delta-E        Max-DP      RMS-DP      [F,P]   Gradient Norm
               ***  Starting incremental Fock matrix formation  ***
                             ****Resetting KDIIS****
                             ****Turning on KDIIS(Cayley)****
  0  -4186.3285819360   0.000000000000 0.02760747  0.00055414  0.5274554   0.199426886
  1  -4187.4974575843  -1.168875648394 0.06721850  0.00087341  0.4770433   0.179428333
  2  -4189.0161519531  -1.518694368705 0.24811642  0.00175460  0.3837092   0.144825336
  3  -4190.9167388406  -1.900586887579 0.36242412  0.00282260  0.2317567   0.087637820
  4  -4192.0607647978  -1.144025957161 0.06819281  0.00043505  0.0277911   0.005681773
  5  -4192.0880732615  -0.027308463738 0.10884984  0.00051967  0.0265997   0.002764084
  6  -4192.1049836169  -0.016910355374 0.07485860  0.00035797  0.0148863   0.001508777
  7  -4192.1105144334  -0.005530816495 0.01890826  0.00014364  0.0043999   0.001094314
  8  -4192.1121939772  -0.001679543768 0.02881267  0.00020041  0.0033692   0.000534498
  9  -4192.1133439448  -0.001149967602 0.02184527  0.00015153  0.0020765   0.000462059
 10  -4192.1141301906  -0.000786245788 0.00319706  0.00001748  0.0027702   0.000349251
 11  -4192.1142103207  -0.000080130166 0.00585259  0.00005101  0.0028963   0.000343350
 12  -4192.1139964479   0.000213872794 0.00466051  0.00003232  0.0026854   0.000345862
 13  -4192.1141299651  -0.000133517200 0.02271060  0.00018005  0.0021382   0.000357451
 14  -4192.1148617734  -0.000731808253 0.04018030  0.00032057  0.0016681   0.000265114
 15  -4192.1159500640  -0.001088290663 0.02914302  0.00021884  0.0010860   0.000321013
 16  -4192.1166682581  -0.000718194072 0.03112145  0.00022758  0.0013127   0.000291097
 17  -4192.1159239409   0.000744317168 0.00552389  0.00002649  0.0012966   0.000312254
 18  -4192.1160034441  -0.000079503141 0.01864715  0.00013661  0.0015286   0.000321384
 19  -4192.1155465730   0.000456871091 0.02068870  0.00017038  0.0011789   0.000324781
               *** Restarting incremental Fock matrix formation ***
                             ****Resetting KDIIS****
 20  -4192.1149701839   0.000576389121 0.00077816  0.00000503  0.0014691   0.000315336
 21  -4192.1149919517  -0.000021767803 0.00218303  0.00001482  0.0014781   0.000304294
 22  -4192.1150526062  -0.000060654562 0.00203099  0.00001173  0.0016426   0.000289720
 23  -4192.1150907141  -0.000038107825 0.00933238  0.00006845  0.0013652   0.000263567
 24  -4192.1148458681   0.000244845951 0.06442752  0.00047353  0.0013023   0.000260391
 25  -4192.1164420561  -0.001596187970 0.05291310  0.00039726  0.0011512   0.000340285
 26  -4192.1176913198  -0.001249263668 0.00888165  0.00006143  0.0019105   0.000625340
 27  -4192.1175716264   0.000119693366 0.02294250  0.00015833  0.0013779   0.000444792
 28  -4192.1170186544   0.000552971964 0.00417238  0.00002717  0.0023118   0.000524884
 29  -4192.1171468200  -0.000128165567 0.02731380  0.00019931  0.0013990   0.000378447
 30  -4192.1165080994   0.000638720592 0.05020378  0.00038197  0.0016387   0.000237363
 31  -4192.1178647044  -0.001356605029 0.17776933  0.00133635  0.0021284   0.000247896
 32  -4192.1115288253   0.006335879131 0.08906403  0.00068671  0.0035613   0.001551894
 33  -4192.1152365640  -0.003707738723 0.00336796  0.00001704  0.0024979   0.000803727
 34  -4192.1152386973  -0.000002133269 0.02669476  0.00019423  0.0022305   0.000802186
 35  -4192.1159234342  -0.000684736939 0.07981386  0.00059838  0.0014463   0.000768851
 36  -4192.1179468537  -0.002023419505 0.05502128  0.00040529  0.0018765   0.000985308
 37  -4192.1164682654   0.001478588312 0.02646037  0.00018632  0.0023583   0.000897408
 38  -4192.1161231509   0.000345114490 0.01363320  0.00007543  0.0022987   0.000499381
 39  -4192.1159745789   0.000148572069 0.04325284  0.00031315  0.0021024   0.000408774
               *** Restarting incremental Fock matrix formation ***
                             ****Resetting KDIIS****
 40  -4192.1148547276   0.001119851286 0.00064258  0.00000515  0.0013022   0.000453485
 41  -4192.1148856721  -0.000030944544 0.00217122  0.00001457  0.0012561   0.000428034
 42  -4192.1149606960  -0.000075023895 0.00162576  0.00001051  0.0012587   0.000382033
 43  -4192.1149711458  -0.000010449751 0.00382387  0.00002364  0.0012593   0.000317742
 44  -4192.1149134449   0.000057700831 0.01459903  0.00008806  0.0013709   0.000261028
 45  -4192.1152354746  -0.000322029668 0.01541088  0.00008213  0.0015628   0.000259841
 46  -4192.1149672482   0.000268226429 0.01009428  0.00006484  0.0013574   0.000260435
 47  -4192.1147361834   0.000231064791 0.00101087  0.00000609  0.0013841   0.000272676
 48  -4192.1147167323   0.000019451061 0.02375240  0.00013773  0.0013023   0.000270564
 49  -4192.1142146126   0.000502119752 0.09826331  0.00055837  0.0015727   0.000335685
 50  -4192.1162776633  -0.002063050761 0.02071989  0.00013921  0.0029591   0.000412734
 51  -4192.1157789929   0.000498670425 0.10088087  0.00052240  0.0026054   0.000374136
[...]
 47 H      0.8593     1.0000     0.1407     0.9802     0.9802     0.0000
 48 C      5.5973     6.0000     0.4027     3.8975     3.8975     0.0000
 49 O      8.5026     8.0000    -0.5026     1.9846     1.9846     0.0000
 50 N      7.5245     7.0000    -0.5245     3.1365     3.1365     0.0000
 51 H      0.7266     1.0000     0.2734     0.9252     0.9252     0.0000
 52 H      0.7296     1.0000     0.2704     0.9269     0.9269     0.0000
 53 H      0.8913     1.0000     0.1087     0.9882     0.9873     0.0009
 54 H      0.7192     1.0000     0.2808     0.9212     0.9212     0.0000
 55 N      7.4542     7.0000    -0.4542     3.0251     3.0214     0.0037
 56 C      6.0275     6.0000    -0.0275     3.9602     3.9602     0.0000
 57 C      5.6072     6.0000     0.3928     3.8933     3.8933     0.0000
 58 O      8.4936     8.0000    -0.4936     1.9839     1.9838     0.0000
 59 H      0.8621     1.0000     0.1379     0.9810     0.9810     0.0000
 60 H      0.7809     1.0000     0.2191     0.9520     0.9519     0.0000
 61 C      6.2340     6.0000    -0.2340     3.9541     3.9540     0.0001
 62 H      0.8435     1.0000     0.1565     0.9755     0.9755     0.0000
 63 H      0.8911     1.0000     0.1089     0.9881     0.9881     0.0000
 64 C      6.1263     6.0000    -0.1263     3.9815     3.9815     0.0000
 65 H      0.8833     1.0000     0.1167     0.9864     0.9864     0.0000
 66 C      6.3642     6.0000    -0.3642     3.9539     3.9539     0.0000
 67 H      0.8803     1.0000     0.1197     0.9857     0.9857     0.0000
 68 H      0.8795     1.0000     0.1205     0.9855     0.9855     0.0000
 69 H      0.8867     1.0000     0.1133     0.9872     0.9872     0.0000
 70 C      6.3730     6.0000    -0.3730     3.9456     3.9456     0.0000
 71 H      0.8963     1.0000     0.1037     0.9893     0.9893     0.0000
 72 H      0.8475     1.0000     0.1525     0.9767     0.9767     0.0000
 73 H      0.8923     1.0000     0.1077     0.9884     0.9884     0.0000
 74 N      7.4077     7.0000    -0.4077     3.2118     3.2118     0.0000
 75 C      6.0195     6.0000    -0.0195     3.9313     3.9313     0.0000
 76 C      5.5971     6.0000     0.4029     3.9070     3.9070     0.0000
 77 O      8.4795     8.0000    -0.4795     2.0019     2.0019     0.0000
 78 C      6.2309     6.0000    -0.2309     3.9458     3.9458     0.0000
 79 C      6.2699     6.0000    -0.2699     3.9505     3.9505     0.0000
 80 C      5.5942     6.0000     0.4058     3.9020     3.9020     0.0000
 81 O      8.5062     8.0000    -0.5062     1.9774     1.9774     0.0000
 82 N      7.5223     7.0000    -0.5223     3.1434     3.1434     0.0000
 83 H      0.8278     1.0000     0.1722     0.9703     0.9703     0.0000
 84 H      0.7255     1.0000     0.2745     0.9247     0.9247     0.0000
 85 H      0.8626     1.0000     0.1374     0.9811     0.9811     0.0000
 86 H      0.8368     1.0000     0.1632     0.9734     0.9734     0.0000
 87 H      0.8445     1.0000     0.1555     0.9758     0.9758     0.0000
 88 H      0.8422     1.0000     0.1578     0.9751     0.9751     0.0000
 89 H      0.7245     1.0000     0.2755     0.9241     0.9241     0.0000
 90 H      0.7218     1.0000     0.2782     0.9226     0.9226     0.0000
 91 N      7.4135     7.0000    -0.4135     3.2175     3.2175     0.0000
 92 C      6.0234     6.0000    -0.0234     3.9319     3.9319     0.0000
 93 C      5.6044     6.0000     0.3956     3.9122     3.9122     0.0000
 94 O      8.4950     8.0000    -0.4950     1.9900     1.9900     0.0000
 95 C      6.2426     6.0000    -0.2426     3.9493     3.9493     0.0000
 96 C      6.2449     6.0000    -0.2449     3.9568     3.9568     0.0000
 97 C      6.2451     6.0000    -0.2451     3.9486     3.9486     0.0000
 98 C      6.1220     6.0000    -0.1220     3.8151     3.8151     0.0000
 99 N      7.4967     7.0000    -0.4967     3.4208     3.4208    -0.0000
100 H      0.8327     1.0000     0.1673     0.9720     0.9720     0.0000
101 H      0.8678     1.0000     0.1322     0.9825     0.9825     0.0000
102 H      0.8411     1.0000     0.1589     0.9748     0.9748     0.0000
103 H      0.8664     1.0000     0.1336     0.9822     0.9822     0.0000
104 H      0.8587     1.0000     0.1413     0.9800     0.9800     0.0000
105 H      0.8543     1.0000     0.1457     0.9788     0.9788    -0.0000
106 H      0.8545     1.0000     0.1455     0.9788     0.9788     0.0000
107 H      0.8144     1.0000     0.1856     0.9656     0.9656    -0.0000
108 H      0.8155     1.0000     0.1845     0.9660     0.9660    -0.0000
109 H      0.6079     1.0000     0.3921     0.8462     0.8462     0.0000
110 H      0.6123     1.0000     0.3877     0.8497     0.8497    -0.0000
111 H      0.6098     1.0000     0.3902     0.8478     0.8478    -0.0000
112 H      0.7101     1.0000     0.2899     0.9160     0.9160     0.0000
113 N      7.4136     7.0000    -0.4136     3.2297     3.2297     0.0000
114 C      6.0289     6.0000    -0.0289     3.9316     3.9316     0.0000
115 C      5.7072     6.0000     0.2928     3.9403     3.9403     0.0000
116 O      8.5801     8.0000    -0.5801     1.9156     1.9156     0.0000
117 C      6.2443     6.0000    -0.2443     3.9571     3.9571     0.0000
118 C      6.2461     6.0000    -0.2461     3.9567     3.9567     0.0000
119 C      6.2458     6.0000    -0.2458     3.9489     3.9489     0.0000
120 C      6.1227     6.0000    -0.1227     3.8147     3.8147     0.0000
121 N      7.4967     7.0000    -0.4967     3.4210     3.4210     0.0000
122 H      0.8596     1.0000     0.1404     0.9803     0.9803     0.0000
123 H      0.8775     1.0000     0.1225     0.9850     0.9850     0.0000
124 H      0.8533     1.0000     0.1467     0.9785     0.9785     0.0000
125 H      0.8709     1.0000     0.1291     0.9833     0.9833     0.0000
126 H      0.8567     1.0000     0.1433     0.9795     0.9795     0.0000
127 H      0.8561     1.0000     0.1439     0.9793     0.9793     0.0000
128 H      0.8566     1.0000     0.1434     0.9794     0.9794     0.0000
129 H      0.8152     1.0000     0.1848     0.9659     0.9659     0.0000
130 H      0.8161     1.0000     0.1839     0.9662     0.9662     0.0000
131 H      0.6083     1.0000     0.3917     0.8466     0.8466    -0.0000
132 H      0.6127     1.0000     0.3873     0.8500     0.8500    -0.0000
133 H      0.6102     1.0000     0.3898     0.8481     0.8481     0.0000
134 H      0.7125     1.0000     0.2875     0.9174     0.9174     0.0000
135 N      7.4184     7.0000    -0.4184     3.2075     3.2075     0.0000
136 C      6.0245     6.0000    -0.0245     3.9281     3.9281     0.0000
137 C      5.8241     6.0000     0.1759     3.8762     3.8759     0.0003
138 O      8.6639     8.0000    -0.6639     1.8359     1.8359     0.0000
139 C      6.2449     6.0000    -0.2449     3.9562     3.9562     0.0000
140 C      6.2590     6.0000    -0.2590     3.9432     3.9432     0.0000
141 S     16.1096    16.0000    -0.1096     2.0824     2.0824     0.0000
142 C      6.3971     6.0000    -0.3971     3.9285     3.9285     0.0000
143 H      0.9028     1.0000     0.0972     0.9905     0.9905     0.0000
144 H      0.8902     1.0000     0.1098     0.9879     0.9879     0.0000
145 H      0.8636     1.0000     0.1364     0.9814     0.9814     0.0000
146 H      0.8652     1.0000     0.1348     0.9818     0.9818     0.0000
147 H      0.8629     1.0000     0.1371     0.9812     0.9812     0.0000
148 H      0.8576     1.0000     0.1424     0.9797     0.9797     0.0000
149 H      0.8542     1.0000     0.1458     0.9787     0.9787     0.0000
150 H      0.8581     1.0000     0.1419     0.9799     0.9799     0.0000
151 H      0.7518     1.0000     0.2482     0.9384     0.9384     0.0000
152 N      7.4387     7.0000    -0.4387     3.1587     3.1587     0.0001
153 C      6.0342     6.0000    -0.0342     3.9484     3.9483     0.0001
154 C      5.6478     6.0000     0.3522     3.9289     3.9288     0.0000
155 O      8.6385     8.0000    -0.6385     1.8642     1.8641     0.0001
156 C      6.2430     6.0000    -0.2430     3.9730     3.9729     0.0001
157 H      0.9039     1.0000     0.0961     0.9908     0.9908     0.0000
158 H      0.8993     1.0000     0.1007     0.9899     0.9898     0.0000
159 C      6.0439     6.0000    -0.0439     3.8743     3.8674     0.0068
160 N      7.4445     7.0000    -0.4445     3.2737     3.2735     0.0001
161 C      6.0963     6.0000    -0.0963     3.8314     3.8094     0.0220
162 H      0.9313     1.0000     0.0687     0.9953     0.9951     0.0002
163 N      7.4278     7.0000    -0.4278     2.9806     2.9674     0.0132
164 C      6.2003     6.0000    -0.2003     3.8976     3.8646     0.0331
165 H      0.9404     1.0000     0.0596     0.9964     0.9962     0.0003
166 H      0.7177     1.0000     0.2823     0.9203     0.9203     0.0000
167 H      0.7865     1.0000     0.2135     0.9544     0.9544     0.0000
168 H      0.8966     1.0000     0.1034     0.9893     0.9893     0.0000
169 O      8.7047     8.0000    -0.7047     1.6758     1.6758     0.0000

  Mayer bond orders larger than 0.100000
B(  0-N ,  1-C ) :   0.9138 B(  0-N , 15-H ) :   0.7807 B(  0-N , 17-H ) :   0.7877 
B(  0-N , 18-H ) :   0.8132 B(  1-C ,  2-C ) :   0.9495 B(  1-C ,  4-C ) :   0.9773 
B(  1-C , 16-H ) :   0.9250 B(  2-C ,  3-O ) :   1.7435 B(  2-C , 19-N ) :   1.1892 
B(  3-O , 19-N ) :   0.1505 B(  4-C ,  5-H ) :   0.9482 B(  4-C ,  6-H ) :   0.9438 
B(  4-C ,  7-C ) :   1.0190 B(  7-C ,  8-N ) :   1.1679 B(  7-C ,  9-C ) :   0.1135 
B(  7-C , 12-C ) :   1.5911 B(  8-N ,  9-C ) :   1.1980 B(  8-N , 14-H ) :   0.8742 
B(  9-C , 10-H ) :   0.9433 B(  9-C , 11-N ) :   1.5988 B( 11-N , 12-C ) :   1.2623 
B( 12-C , 13-H ) :   0.9589 B( 19-N , 20-C ) :   0.9620 B( 19-N , 40-H ) :   0.8740 
B( 20-C , 21-C ) :   0.9509 B( 20-C , 23-C ) :   0.9815 B( 20-C , 28-H ) :   0.9388 
B( 21-C , 22-O ) :   1.7030 B( 21-C , 41-N ) :   1.2219 B( 22-O , 41-N ) :   0.1618 
B( 23-C , 24-C ) :   1.0060 B( 23-C , 29-H ) :   0.9657 B( 23-C , 30-H ) :   0.9484 
B( 24-C , 25-C ) :   1.0040 B( 24-C , 31-H ) :   0.9647 B( 24-C , 32-H ) :   0.9601 
B( 25-C , 26-C ) :   1.0024 B( 25-C , 33-H ) :   0.9613 B( 25-C , 34-H ) :   0.9614 
B( 26-C , 27-N ) :   0.8996 B( 26-C , 35-H ) :   0.9482 B( 26-C , 36-H ) :   0.9486 
B( 27-N , 37-H ) :   0.8348 B( 27-N , 38-H ) :   0.8374 B( 27-N , 39-H ) :   0.8353 
B( 41-N , 42-C ) :   0.9452 B( 41-N , 54-H ) :   0.8773 B( 42-C , 43-C ) :   0.9252 
B( 42-C , 45-C ) :   0.9801 B( 42-C , 53-H ) :   0.9477 B( 43-C , 44-O ) :   1.4711 
B( 43-C , 55-N ) :   0.9841 B( 45-C , 46-H ) :   0.9417 B( 45-C , 47-H ) :   0.9556 
B( 45-C , 48-C ) :   0.9744 B( 48-C , 49-O ) :   1.7381 B( 48-C , 50-N ) :   1.1568 
B( 49-O , 50-N ) :   0.1481 B( 50-N , 51-H ) :   0.9059 B( 50-N , 52-H ) :   0.9068 
B( 55-N , 56-C ) :   0.9954 B( 55-N , 60-H ) :   0.9053 B( 56-C , 57-C ) :   0.9529 
B( 56-C , 59-H ) :   0.9420 B( 56-C , 61-C ) :   0.9780 B( 57-C , 58-O ) :   1.7422 
B( 57-C , 74-N ) :   1.1521 B( 58-O , 74-N ) :   0.1351 B( 61-C , 62-H ) :   0.9413 
B( 61-C , 63-H ) :   0.9700 B( 61-C , 64-C ) :   0.9947 B( 64-C , 65-H ) :   0.9590 
B( 64-C , 66-C ) :   1.0082 B( 64-C , 70-C ) :   1.0074 B( 66-C , 67-H ) :   0.9753 
B( 66-C , 68-H ) :   0.9752 B( 66-C , 69-H ) :   0.9751 B( 70-C , 71-H ) :   0.9782 
B( 70-C , 72-H ) :   0.9485 B( 70-C , 73-H ) :   0.9781 B( 74-N , 75-C ) :   0.9678 
B( 74-N , 84-H ) :   0.8883 B( 75-C , 76-C ) :   0.9528 B( 75-C , 78-C ) :   0.9835 
B( 75-C , 83-H ) :   0.9360 B( 76-C , 77-O ) :   1.7411 B( 76-C , 91-N ) :   1.1707 
B( 77-O , 91-N ) :   0.1442 B( 78-C , 79-C ) :   1.0083 B( 78-C , 85-H ) :   0.9629 
B( 78-C , 86-H ) :   0.9454 B( 79-C , 80-C ) :   0.9696 B( 79-C , 87-H ) :   0.9523 
B( 79-C , 88-H ) :   0.9467 B( 80-C , 81-O ) :   1.7451 B( 80-C , 82-N ) :   1.1649 
B( 81-O , 82-N ) :   0.1533 B( 82-N , 89-H ) :   0.9044 B( 82-N , 90-H ) :   0.9036 
B( 91-N , 92-C ) :   0.9679 B( 91-N ,112-H ) :   0.8786 B( 92-C , 93-C ) :   0.9530 
B( 92-C , 95-C ) :   0.9805 B( 92-C ,100-H ) :   0.9390 B( 93-C , 94-O ) :   1.7199 
B( 93-C ,113-N ) :   1.1849 B( 94-O ,113-N ) :   0.1470 B( 95-C , 96-C ) :   1.0061 
B( 95-C ,101-H ) :   0.9662 B( 95-C ,102-H ) :   0.9476 B( 96-C , 97-C ) :   1.0041 
B( 96-C ,103-H ) :   0.9651 B( 96-C ,104-H ) :   0.9600 B( 97-C , 98-C ) :   1.0022 
B( 97-C ,105-H ) :   0.9615 B( 97-C ,106-H ) :   0.9615 B( 98-C , 99-N ) :   0.8994 
B( 98-C ,107-H ) :   0.9483 B( 98-C ,108-H ) :   0.9490 B( 99-N ,109-H ) :   0.8348 
B( 99-N ,110-H ) :   0.8375 B( 99-N ,111-H ) :   0.8354 B(113-N ,114-C ) :   0.9620 
B(113-N ,134-H ) :   0.8778 B(114-C ,115-C ) :   0.9555 B(114-C ,117-C ) :   0.9759 
B(114-C ,122-H ) :   0.9427 B(115-C ,116-O ) :   1.5291 B(115-C ,135-N ) :   1.1211 
B(116-O ,135-N ) :   0.1155 B(117-C ,118-C ) :   1.0062 B(117-C ,123-H ) :   0.9687 
B(117-C ,124-H ) :   0.9509 B(118-C ,119-C ) :   1.0033 B(118-C ,125-H ) :   0.9661 
B(118-C ,126-H ) :   0.9591 B(119-C ,120-C ) :   1.0018 B(119-C ,127-H ) :   0.9619 
B(119-C ,128-H ) :   0.9621 B(120-C ,121-N ) :   0.8987 B(120-C ,129-H ) :   0.9485 
B(120-C ,130-H ) :   0.9492 B(121-N ,131-H ) :   0.8351 B(121-N ,132-H ) :   0.8377 
B(121-N ,133-H ) :   0.8356 B(135-N ,136-C ) :   0.9649 B(135-N ,151-H ) :   0.8987 
B(136-C ,137-C ) :   0.9590 B(136-C ,139-C ) :   0.9533 B(136-C ,143-H ) :   0.9398 
B(137-C ,138-O ) :   1.3409 B(137-C ,152-N ) :   1.0322 B(137-C ,159-C ) :   0.1089 
B(139-C ,140-C ) :   1.0068 B(139-C ,144-H ) :   0.9690 B(139-C ,145-H ) :   0.9490 
B(140-C ,141-S ) :   0.9937 B(140-C ,146-H ) :   0.9596 B(140-C ,147-H ) :   0.9541 
B(141-S ,142-C ) :   1.0158 B(142-C ,148-H ) :   0.9659 B(142-C ,149-H ) :   0.9665 
B(142-C ,150-H ) :   0.9659 B(152-N ,153-C ) :   0.9838 B(152-N ,167-H ) :   0.9132 
B(153-C ,154-C ) :   0.9357 B(153-C ,156-C ) :   0.9218 B(153-C ,168-H ) :   0.9493 
B(154-C ,155-O ) :   1.5583 B(154-C ,169-O ) :   1.3929 B(155-O ,169-O ) :   0.2186 
B(156-C ,157-H ) :   0.9723 B(156-C ,158-H ) :   0.9545 B(156-C ,159-C ) :   1.0537 
B(159-C ,160-N ) :   1.0471 B(159-C ,164-C ) :   1.3562 B(160-N ,161-C ) :   1.0580 
B(160-N ,166-H ) :   0.8551 B(161-C ,162-H ) :   0.9674 B(161-C ,163-N ) :   1.4408 
B(163-N ,164-C ) :   1.3063 B(164-C ,165-H ) :   0.9751 

-------
TIMINGS
-------

Total SCF time: 0 days 0 hours 14 min 37 sec 

Total time                  ....     877.470 sec
Sum of individual times     ....     862.528 sec  ( 98.3%)

Fock matrix formation       ....     803.836 sec  ( 91.6%)
Diagonalization             ....      53.963 sec  (  6.1%)
Density matrix formation    ....       1.158 sec  (  0.1%)
Population analysis         ....       0.623 sec  (  0.1%)
Initial guess               ....       2.949 sec  (  0.3%)
Orbital Transformation      ....       0.000 sec  (  0.0%)
Orbital Orthonormalization  ....       0.000 sec  (  0.0%)
DIIS solution               ....       0.000 sec  (  0.0%)


-------------------------------------------------------------------------------
                          DFT DISPERSION CORRECTION                            
                                                                               
                              DFTD3 V3.1  Rev 1                                
                          USING Becke-Johnson damping                          
-------------------------------------------------------------------------------
Hartree-Fock is recognized
Active option DFTDOPT                   ...         4   

molecular C6(AA) [au] = 255974.182739 


            DFT-D V3
 parameters
 using HF/MINIX parameters
 s6 scaling factor         :     1.0000 
 a1 scaling factor         :     0.4171 
 s8 scaling factor         :     0.8777 
 a2 scaling factor         :     2.9149 
 ad hoc parameters k1-k3   :    16.0000     1.3333    -4.0000 

 Edisp/kcal,au: -551.812430295323  -0.879368988424 
 E6   /kcal   : -317.285346332 
 E8   /kcal   : -234.527083963 
 % E8         :  42.501232500 

-------------------------   ----------------
Dispersion correction           -0.879368988
-------------------------   ----------------

------------------   -----------------
gCP+bas correction        -0.670278555
------------------   -----------------
----------------------------   ----------------
Total correction to HF/MINIX       -1.549647543
----------------------------   ----------------


-------------------------   --------------------
FINAL SINGLE POINT ENERGY     -4193.625534852049
-------------------------   --------------------


                            ***************************************
                            *     ORCA property calculations      *
                            ***************************************

                                    ---------------------
                                    Active property flags
                                    ---------------------
   (+) Dipole Moment


------------------------------------------------------------------------------
                       ORCA ELECTRIC PROPERTIES CALCULATION
------------------------------------------------------------------------------

Dipole Moment Calculation                       ... on
Quadrupole Moment Calculation                   ... off
Polarizability Calculation                      ... off
GBWName                                         ... HKNLQKKMH.gbw
Electron density file                           ... HKNLQKKMH.scfp
The origin for moment calculation is the CENTER OF MASS  = (26.426280, -0.104425 17.065002)

-------------
DIPOLE MOMENT
-------------
                                X             Y             Z
Electronic contribution:    -16.67246       8.66449     -51.55937
Nuclear contribution   :    -63.22648     -14.40618      18.16880
                        -----------------------------------------
Total Dipole Moment    :    -79.89894      -5.74169     -33.39057
                        -----------------------------------------
Magnitude (a.u.)       :     86.78559
Magnitude (Debye)      :    220.59143



--------------------
Rotational spectrum 
--------------------
 
Rotational constants in cm-1:     0.001495     0.000152     0.000139 
Rotational constants in MHz :    44.829419     4.556354     4.180499 

 Dipole components along the rotational axes: 
x,y,z [a.u.] :    84.848923    18.130131    -1.922647 
x,y,z [Debye]:   215.668823    46.083131    -4.886980 

 
--------------------------------------------------------------------------
WARNING: No preset parameters were found for the device that Open MPI
detected:

  Local host:            c0703a-s15
  Device name:           mlx5_0
  Device vendor ID:      0x02c9
  Device vendor part ID: 4123

Default device parameters will be used, which may result in lower
performance.  You can edit any of the files specified by the
btl_openib_device_param_files MCA parameter to set values for your
device.

NOTE: You can turn off this warning by setting the MCA parameter
      btl_openib_warn_no_device_params_found to 0.
--------------------------------------------------------------------------
--------------------------------------------------------------------------
WARNING: There was an error initializing an OpenFabrics device.

  Local host:   c0703a-s15
  Local device: mlx5_0
--------------------------------------------------------------------------
[c0703a-s15.ufhpc:99556] 14 more processes have sent help message help-mpi-btl-openib.txt / no device params found
[c0703a-s15.ufhpc:99556] Set MCA parameter "orte_base_help_aggregate" to 0 to see all help / error messages
[c0703a-s15.ufhpc:99556] 14 more processes have sent help message help-mpi-btl-openib.txt / error in device init

Timings for individual modules:

Sum of individual times         ...      881.153 sec (=  14.686 min)
GTO integral calculation        ...        2.430 sec (=   0.041 min)   0.3 %
SCF iterations                  ...      878.723 sec (=  14.645 min)  99.7 %
                             ****ORCA TERMINATED NORMALLY****
TOTAL RUN TIME: 0 days 0 hours 14 minutes 42 seconds 885 msec
