/home/zfg2013/blue_zfg2013/INPS
c0703a-s21.ufhpc
Fri Aug  4 00:39:52 EDT 2023

                                 *****************
                                 * O   R   C   A *
                                 *****************

           --- An Ab Initio, DFT and Semiempirical electronic structure package ---

                  #######################################################
                  #                        -***-                        #
                  #          Department of theory and spectroscopy      #
                  #               Directorship: Frank Neese             #
                  #        Max Planck Institute fuer Kohlenforschung    #
                  #                Kaiser Wilhelm Platz 1               #
                  #                 D-45470 Muelheim/Ruhr               #
                  #                      Germany                        #
                  #                                                     #
                  #                  All rights reserved                #
                  #                        -***-                        #
                  #######################################################


                         Program Version 4.2.1 -  RELEASE  -


 With contributions from (in alphabetic order):
   Daniel Aravena         : Magnetic Suceptibility
   Michael Atanasov       : Ab Initio Ligand Field Theory (pilot matlab implementation)
   Alexander A. Auer      : GIAO ZORA, VPT2
   Ute Becker             : Parallelization
   Giovanni Bistoni       : ED, misc. LED, open-shell LED, HFLD
   Martin Brehm           : Molecular dynamics
   Dmytro Bykov           : SCF Hessian
   Vijay G. Chilkuri      : MRCI spin determinant printing, contributions to CSF-ICE
   Dipayan Datta          : RHF DLPNO-CCSD density
   Achintya Kumar Dutta   : EOM-CC, STEOM-CC
   Dmitry Ganyushin       : Spin-Orbit,Spin-Spin,Magnetic field MRCI
   Miquel Garcia          : C-PCM Hessian, Gaussian charge scheme
   Yang Guo               : DLPNO-NEVPT2, CIM, IAO-localization
   Andreas Hansen         : Spin unrestricted coupled pair/coupled cluster methods
   Benjamin Helmich-Paris : CASSCF linear response (MC-RPA)
   Lee Huntington         : MR-EOM, pCC
   Robert Izsak           : Overlap fitted RIJCOSX, COSX-SCS-MP3, EOM
   Christian Kollmar      : KDIIS, OOCD, Brueckner-CCSD(T), CCSD density
   Simone Kossmann        : Meta GGA functionals, TD-DFT gradient, OOMP2, MP2 Hessian
   Martin Krupicka        : AUTO-CI
   Lucas Lang             : DCDCAS
   Dagmar Lenk            : GEPOL surface, SMD
   Dimitrios Liakos       : Extrapolation schemes; Compound Job, initial MDCI parallelization
   Dimitrios Manganas     : Further ROCIS development; embedding schemes
   Dimitrios Pantazis     : SARC Basis sets
   Taras Petrenko         : DFT Hessian,TD-DFT gradient, ASA, ECA, R-Raman, ABS, FL, XAS/XES, NRVS
   Peter Pinski           : DLPNO-MP2, DLPNO-MP2 Gradient
   Christoph Reimann      : Effective Core Potentials
   Marius Retegan         : Local ZFS, SOC
   Christoph Riplinger    : Optimizer, TS searches, QM/MM, DLPNO-CCSD(T), (RO)-DLPNO pert. Triples
   Tobias Risthaus        : Range-separated hybrids, TD-DFT gradient, RPA, STAB
   Michael Roemelt        : Original ROCIS implementation
   Masaaki Saitow         : Open-shell DLPNO-CCSD energy and density
   Barbara Sandhoefer     : DKH picture change effects
   Avijit Sen             : IP-ROCIS
   Kantharuban Sivalingam : CASSCF convergence, NEVPT2, FIC-MRCI
   Bernardo de Souza      : ESD, SOC TD-DFT
   Georgi Stoychev        : AutoAux, RI-MP2 NMR
   Willem Van den Heuvel  : Paramagnetic NMR
   Boris Wezisla          : Elementary symmetry handling
   Frank Wennmohs         : Technical directorship


 We gratefully acknowledge several colleagues who have allowed us to
 interface, adapt or use parts of their codes:
   Stefan Grimme, W. Hujo, H. Kruse,             : VdW corrections, initial TS optimization,
                  C. Bannwarth                     DFT functionals, gCP, sTDA/sTD-DF
   Ed Valeev, F. Pavosevic, A. Kumar             : LibInt (2-el integral package), F12 methods
   Garnet Chan, S. Sharma, J. Yang, R. Olivares  : DMRG
   Ulf Ekstrom                                   : XCFun DFT Library
   Mihaly Kallay                                 : mrcc  (arbitrary order and MRCC methods)
   Andreas Klamt, Michael Diedenhofen            : otool_cosmo (COSMO solvation model)
   Jiri Pittner, Ondrej Demel                    : Mk-CCSD
   Frank Weinhold                                : gennbo (NPA and NBO analysis)
   Christopher J. Cramer and Donald G. Truhlar   : smd solvation model
   Lars Goerigk                                  : TD-DFT with DH, B97 family of functionals
   V. Asgeirsson, H. Jonsson                     : NEB implementation
   FAccTs GmbH                                   : IRC, NEB, NEB-TS, Multilevel, MM, QM/MM, CI optimization
   S Lehtola, MJT Oliveira, MAL Marques          : LibXC Library


 Your calculation uses the libint2 library for the computation of 2-el integrals
 For citations please refer to: http://libint.valeyev.net

 Your ORCA version has been built with support for libXC version: 4.2.3
 For citations please refer to: https://tddft.org/programs/libxc/

 This ORCA versions uses:
   CBLAS   interface :  Fast vector & matrix operations
   LAPACKE interface :  Fast linear algebra routines
   SCALAPACK package :  Parallel linear algebra routines


Your calculation utilizes the geometrical counterpoise correction gCP
Please cite in your paper:
H.Kruse, S. Grimme J.Chem.Phys., 136, (2012), 154101 
   

Your calculation utilizes the atom-pairwise dispersion correction
with the Becke-Johnson damping scheme (D3BJ)
Cite in your paper:
S.Grimme, S.Ehrlich, L.Goerigk, J Comput Chem, (2011), 32, 1456–1465 
S.Grimme, J.Antony, S.Ehrlich and H.Krieg, J.Chem.Phys., 132, (2010), 154104 
   

Your calculation utilizes the SMD solvation module
Please cite in your paper:
A.V. Marenich, C.J. Cramer, D.G. Truhlar J. Phys. Chem. B, 113, (2009), 6378 

----- Orbital basis set information -----
Your calculation utilizes the basis: MINIX,
   a combination of small basis sets by S. Grimme (see manual for definitions).

================================================================================
                                        WARNINGS
                       Please study these warnings very carefully!
================================================================================


WARNING: your system is open-shell and RHF/RKS was chosen
  ===> : WILL SWITCH to UHF/UKS


INFO   : the flag for use of LIBINT has been found!

================================================================================
                                       INPUT FILE
================================================================================
NAME = HKTCGQQQT.inp
|  1> !HF-3c CPCM KDIIS SmallPrint
|  2> %PAL NPROCS 15 END
|  3> %maxcore 10000
|  4> %CPCM
|  5> SMD TRUE
|  6> SMDSOLVENT "WATER"
|  7> END
|  8> 
|  9> %scf
| 10> SCFmode Direct
| 11> maxiter 10000
| 12> 
| 13> end
| 14> 
| 15> %geom
| 16> 
| 17> Constraints
| 18> {C 2 C}
| 19> {C 21 C}
| 20> {C 43 C}
| 21> {C 57 C}
| 22> {C 68 C}
| 23> {C 75 C}
| 24> {C 92 C}
| 25> {C 109 C}
| 26> {C 126 C}
| 27> 
| 28> end
| 29> 
| 30> maxiter 10000
| 31> 
| 32> end
| 33> 
| 34> * xyz 0 2
| 35>    N        0.00000         0.00000         0.00000
| 36>    C        1.46145         0.00000         0.00000
| 37>    C        1.94774         0.00000         1.45615
| 38>    O        1.18426         0.00000         2.41946
| 39>    C        2.04411         1.20336         -0.76878
| 40>    H        2.63381         1.85004         -0.10703
| 41>    H        1.24387         1.83827         -1.17112
| 42>    C        2.90609         0.76454         -1.90397
| 43>    N        2.40386         0.09306         -2.99477
| 44>    C        3.45453         -0.18863         -3.81870
| 45>    H        3.33445         -0.73115         -4.74678
| 46>    N        4.58505         0.27510         -3.33539
| 47>    C        4.25427         0.88487         -2.15432
| 48>    H        5.00749         1.36841         -1.54511
| 49>    H        1.43192         -0.17656         -3.13345
| 50>    H        -0.46323         0.13431         0.89571
| 51>    H        1.77077         -0.95781         -0.43895
| 52>    H        -0.34000         0.08381         -0.95801
| 53>    H        -0.34000         0.94706         -0.16699
| 54>    N        3.26069         -0.00000         1.72406
| 55>    C        3.72296         0.00022         3.10830
| 56>    C        5.25957         0.00016         3.05115
| 57>    O        5.89478         -0.00005         1.99805
| 58>    C        3.17221         -1.22220         3.85582
| 59>    C        3.49760         -1.23091         5.35214
| 60>    C        2.76820         -2.36936         6.07164
| 61>    C        3.16412         -2.43597         7.54599
| 62>    N        2.43343         -3.50207         8.21876
| 63>    H        3.37443         0.85767         3.64516
| 64>    H        3.56358         -2.10444         3.39388
| 65>    H        2.11168         -1.22213         3.71379
| 66>    H        3.21324         -0.29072         5.77650
| 67>    H        4.55447         -1.35132         5.46806
| 68>    H        3.00258         -3.29454         5.58790
| 69>    H        1.71448         -2.20937         5.97690
| 70>    H        2.94242         -1.49942         8.01356
| 71>    H        4.21673         -2.61502         7.61570
| 72>    H        2.75555         -3.57872         9.18352
| 73>    H        2.64374         -4.39381         7.77046
| 74>    H        1.43137         -3.32635         8.14527
| 75>    H        3.96942         -0.42893         1.12898
| 76>    N        5.97225         0.00033         4.18591
| 77>    C        7.43686         0.00004         4.13143
| 78>    C        7.91479         0.00034         5.59179
| 79>    O        7.14268         0.00074         6.54929
| 80>    C        9.48269         1.08418         3.03392
| 81>    C        7.99880         1.22002         3.36010
| 82>    O        7.33230         1.43157         2.10661
| 83>    H        9.81158         1.91465         2.39901
| 84>    H        9.67449         0.16510         2.46907
| 85>    H        10.10417         1.08183         3.93235
| 86>    H        7.84819         2.13313         3.94777
| 87>    H        7.74199         -0.93422         3.64476
| 88>    H        6.94471         0.58049         1.81203
| 89>    H        5.53694         0.37542         5.02463
| 90>    N        9.22610         0.00018         5.86761
| 91>    C        9.68195         0.00068         7.26049
| 92>    C        11.22120         0.00032         7.20054
| 93>    O        11.84829         -0.00028         6.14131
| 94>    H        9.34218         0.94169         7.71162
| 95>    C        9.14108         -1.21363         8.02681
| 96>    H        8.07500         -1.35607         7.82551
| 97>    S        9.31576         -1.06845         9.83993
| 98>    H        9.65297         -2.13030         7.71044
| 99>    H        8.58352         -2.15109         10.14570
|100>    H        9.93521         -0.13333         5.15004
|101>    N        11.93585         0.00066         8.33406
|102>    C        13.38151         0.00010         8.27776
|103>    C        13.95839         0.00063         9.68988
|104>    O        13.26770         0.00142         10.70590
|105>    H        13.71271         -0.89630         7.74255
|106>    H        13.71417         0.89270         7.74039
|107>    H        11.49898         -0.00122         9.25141
|108>    N        15.28606         0.00024         9.87125
|109>    C        15.83733         0.00097         11.22066
|110>    C        17.36719         0.00027         11.06794
|111>    O        17.93823         -0.00072         9.97956
|112>    C        15.34601         -1.22487         11.99831
|113>    C        15.65698         -1.15769         13.49306
|114>    C        15.06998         -2.33457         14.24310
|115>    O        14.48359         -3.27448         13.72316
|116>    N        15.26040         -2.28775         15.59294
|117>    H        15.52434         0.92499         11.72022
|118>    H        15.81670         -0.47803         9.14860
|119>    H        15.78312         -2.13803         11.57391
|120>    H        14.25928         -1.32290         11.86967
|121>    H        15.24660         -0.23639         13.92101
|122>    H        16.73918         -1.16757         13.66146
|123>    H        14.88194         -3.04736         16.14444
|124>    H        15.71829         -1.52283         16.06648
|125>    N        18.14915         0.00072         12.15612
|126>    C        19.59961         -0.00016         12.01133
|127>    C        20.18105         0.00067         13.43460
|128>    O        19.48677         0.00185         14.44883
|129>    C        20.05678         1.22553         11.21290
|130>    C        21.52313         1.15815         10.78773
|131>    C        21.91109         2.33489         9.91769
|132>    O        21.17719         3.27483         9.64291
|133>    N        23.19296         2.28789         9.45386
|134>    H        19.89436         -0.92428         11.50097
|135>    H        17.75915         0.47913         12.96332
|136>    H        19.88656         2.13878         11.79774
|137>    H        19.43424         1.32350         10.31290
|138>    H        21.70900         0.23677         10.22484
|139>    H        22.17869         1.16809         11.66509
|140>    H        23.50311         3.04739         8.86111
|141>    H        23.82571         1.52292         9.63680
|142>    N        21.50872         0.00011         13.61597
|143>    C        22.05999         0.00112         14.96538
|144>    C        23.58985         0.00012         14.81266
|145>    O        24.16089         -0.00126         13.72428
|146>    C        21.56847         -1.22443         15.74337
|147>    C        21.87945         -1.15689         17.23810
|148>    C        21.29225         -2.33347         17.98846
|149>    O        20.70570         -3.27342         17.46879
|150>    N        21.48268         -2.28631         19.33829
|151>    H        21.74715         0.92533         15.46469
|152>    H        22.03928         -0.47844         12.89345
|153>    H        22.00543         -2.13777         15.31922
|154>    H        20.48172         -1.32231         15.61475
|155>    H        21.46921         -0.23540         17.66580
|156>    H        22.96164         -1.16690         17.40651
|157>    H        21.10410         -3.04570         19.89000
|158>    H        21.94069         -1.52132         19.81162
|159>    N        24.37180         0.00075         15.90084
|160>    C        25.83018         -0.00042         15.75526
|161>    C        26.39813         0.00072         17.18302
|162>    O        25.68715         0.00229         18.18674
|163>    C        27.80426         1.08168         14.53160
|164>    C        26.34364         1.21863         14.94945
|165>    O        25.60048         1.42961         13.73973
|166>    H        28.09342         1.91147         13.87677
|167>    H        27.96003         0.16205         13.95664
|168>    H        28.48049         1.07966         15.38959
|169>    H        26.23040         2.13228         15.54462
|170>    H        26.10392         -0.93524         15.25128
|171>    H        25.19485         0.57853         13.47054
|172>    H        23.98977         0.37673         16.76474
|173>    O        27.74389         -0.00009         17.30193
|174> *
|175> 
|176>                          ****END OF INPUT****
================================================================================

                       ****************************
                       * Single Point Calculation *
                       ****************************

---------------------------------
CARTESIAN COORDINATES (ANGSTROEM)
---------------------------------
  N      0.000000    0.000000    0.000000
  C      1.461450    0.000000    0.000000
  C      1.947740    0.000000    1.456150
  O      1.184260    0.000000    2.419460
  C      2.044110    1.203360   -0.768780
  H      2.633810    1.850040   -0.107030
  H      1.243870    1.838270   -1.171120
  C      2.906090    0.764540   -1.903970
  N      2.403860    0.093060   -2.994770
  C      3.454530   -0.188630   -3.818700
  H      3.334450   -0.731150   -4.746780
  N      4.585050    0.275100   -3.335390
  C      4.254270    0.884870   -2.154320
  H      5.007490    1.368410   -1.545110
  H      1.431920   -0.176560   -3.133450
  H     -0.463230    0.134310    0.895710
  H      1.770770   -0.957810   -0.438950
  H     -0.340000    0.083810   -0.958010
  H     -0.340000    0.947060   -0.166990
  N      3.260690   -0.000000    1.724060
  C      3.722960    0.000220    3.108300
  C      5.259570    0.000160    3.051150
  O      5.894780   -0.000050    1.998050
  C      3.172210   -1.222200    3.855820
  C      3.497600   -1.230910    5.352140
  C      2.768200   -2.369360    6.071640
  C      3.164120   -2.435970    7.545990
  N      2.433430   -3.502070    8.218760
  H      3.374430    0.857670    3.645160
  H      3.563580   -2.104440    3.393880
  H      2.111680   -1.222130    3.713790
  H      3.213240   -0.290720    5.776500
  H      4.554470   -1.351320    5.468060
  H      3.002580   -3.294540    5.587900
  H      1.714480   -2.209370    5.976900
  H      2.942420   -1.499420    8.013560
  H      4.216730   -2.615020    7.615700
  H      2.755550   -3.578720    9.183520
  H      2.643740   -4.393810    7.770460
  H      1.431370   -3.326350    8.145270
  H      3.969420   -0.428930    1.128980
  N      5.972250    0.000330    4.185910
  C      7.436860    0.000040    4.131430
  C      7.914790    0.000340    5.591790
  O      7.142680    0.000740    6.549290
  C      9.482690    1.084180    3.033920
  C      7.998800    1.220020    3.360100
  O      7.332300    1.431570    2.106610
  H      9.811580    1.914650    2.399010
  H      9.674490    0.165100    2.469070
  H     10.104170    1.081830    3.932350
  H      7.848190    2.133130    3.947770
  H      7.741990   -0.934220    3.644760
  H      6.944710    0.580490    1.812030
  H      5.536940    0.375420    5.024630
  N      9.226100    0.000180    5.867610
  C      9.681950    0.000680    7.260490
  C     11.221200    0.000320    7.200540
  O     11.848290   -0.000280    6.141310
  H      9.342180    0.941690    7.711620
  C      9.141080   -1.213630    8.026810
  H      8.075000   -1.356070    7.825510
  S      9.315760   -1.068450    9.839930
  H      9.652970   -2.130300    7.710440
  H      8.583520   -2.151090   10.145700
  H      9.935210   -0.133330    5.150040
  N     11.935850    0.000660    8.334060
  C     13.381510    0.000100    8.277760
  C     13.958390    0.000630    9.689880
  O     13.267700    0.001420   10.705900
  H     13.712710   -0.896300    7.742550
  H     13.714170    0.892700    7.740390
  H     11.498980   -0.001220    9.251410
  N     15.286060    0.000240    9.871250
  C     15.837330    0.000970   11.220660
  C     17.367190    0.000270   11.067940
  O     17.938230   -0.000720    9.979560
  C     15.346010   -1.224870   11.998310
  C     15.656980   -1.157690   13.493060
  C     15.069980   -2.334570   14.243100
  O     14.483590   -3.274480   13.723160
  N     15.260400   -2.287750   15.592940
  H     15.524340    0.924990   11.720220
  H     15.816700   -0.478030    9.148600
  H     15.783120   -2.138030   11.573910
  H     14.259280   -1.322900   11.869670
  H     15.246600   -0.236390   13.921010
  H     16.739180   -1.167570   13.661460
  H     14.881940   -3.047360   16.144440
  H     15.718290   -1.522830   16.066480
  N     18.149150    0.000720   12.156120
  C     19.599610   -0.000160   12.011330
  C     20.181050    0.000670   13.434600
  O     19.486770    0.001850   14.448830
  C     20.056780    1.225530   11.212900
  C     21.523130    1.158150   10.787730
  C     21.911090    2.334890    9.917690
  O     21.177190    3.274830    9.642910
  N     23.192960    2.287890    9.453860
  H     19.894360   -0.924280   11.500970
  H     17.759150    0.479130   12.963320
  H     19.886560    2.138780   11.797740
  H     19.434240    1.323500   10.312900
  H     21.709000    0.236770   10.224840
  H     22.178690    1.168090   11.665090
  H     23.503110    3.047390    8.861110
  H     23.825710    1.522920    9.636800
  N     21.508720    0.000110   13.615970
  C     22.059990    0.001120   14.965380
  C     23.589850    0.000120   14.812660
  O     24.160890   -0.001260   13.724280
  C     21.568470   -1.224430   15.743370
  C     21.879450   -1.156890   17.238100
  C     21.292250   -2.333470   17.988460
  O     20.705700   -3.273420   17.468790
  N     21.482680   -2.286310   19.338290
  H     21.747150    0.925330   15.464690
  H     22.039280   -0.478440   12.893450
  H     22.005430   -2.137770   15.319220
  H     20.481720   -1.322310   15.614750
  H     21.469210   -0.235400   17.665800
  H     22.961640   -1.166900   17.406510
  H     21.104100   -3.045700   19.890000
  H     21.940690   -1.521320   19.811620
  N     24.371800    0.000750   15.900840
  C     25.830180   -0.000420   15.755260
  C     26.398130    0.000720   17.183020
  O     25.687150    0.002290   18.186740
  C     27.804260    1.081680   14.531600
  C     26.343640    1.218630   14.949450
  O     25.600480    1.429610   13.739730
  H     28.093420    1.911470   13.876770
  H     27.960030    0.162050   13.956640
  H     28.480490    1.079660   15.389590
  H     26.230400    2.132280   15.544620
  H     26.103920   -0.935240   15.251280
  H     25.194850    0.578530   13.470540
  H     23.989770    0.376730   16.764740
  O     27.743890   -0.000090   17.301930

----------------------------
CARTESIAN COORDINATES (A.U.)
----------------------------
  NO LB      ZA    FRAG     MASS         X           Y           Z
   0 N     7.0000    0    14.007    0.000000    0.000000    0.000000
   1 C     6.0000    0    12.011    2.761740    0.000000    0.000000
   2 C     6.0000    0    12.011    3.680695    0.000000    2.751725
   3 O     8.0000    0    15.999    2.237927    0.000000    4.572117
   4 C     6.0000    0    12.011    3.862808    2.274021   -1.452784
   5 H     1.0000    0     1.008    4.977180    3.496069   -0.202257
   6 H     1.0000    0     1.008    2.350574    3.473827   -2.213096
   7 C     6.0000    0    12.011    5.491714    1.444771   -3.597982
   8 N     7.0000    0    14.007    4.542637    0.175858   -5.659295
   9 C     6.0000    0    12.011    6.528116   -0.356459   -7.216297
  10 H     1.0000    0     1.008    6.301197   -1.381673   -8.970114
  11 N     7.0000    0    14.007    8.664489    0.519864   -6.302974
  12 C     6.0000    0    12.011    8.039405    1.672162   -4.071075
  13 H     1.0000    0     1.008    9.462785    2.585920   -2.919835
  14 H     1.0000    0     1.008    2.705937   -0.333650   -5.921362
  15 H     1.0000    0     1.008   -0.875378    0.253809    1.692647
  16 H     1.0000    0     1.008    3.346270   -1.809999   -0.829495
  17 H     1.0000    0     1.008   -0.642507    0.158378   -1.810377
  18 H     1.0000    0     1.008   -0.642507    1.789684   -0.315565
  19 N     7.0000    0    14.007    6.161811   -0.000000    3.258001
  20 C     6.0000    0    12.011    7.035375    0.000416    5.873836
  21 C     6.0000    0    12.011    9.939147    0.000302    5.765838
  22 O     8.0000    0    15.999   11.139520   -0.000094    3.775767
  23 C     6.0000    0    12.011    5.994608   -2.309623    7.286444
  24 C     6.0000    0    12.011    6.609506   -2.326083   10.114079
  25 C     6.0000    0    12.011    5.231140   -4.477442   11.473737
  26 C     6.0000    0    12.011    5.979320   -4.603316   14.259855
  27 N     7.0000    0    14.007    4.598516   -6.617953   15.531206
  28 H     1.0000    0     1.008    6.376749    1.620761    6.888354
  29 H     1.0000    0     1.008    6.734190   -3.976815    6.413504
  30 H     1.0000    0     1.008    3.990497   -2.309491    7.018046
  31 H     1.0000    0     1.008    6.072144   -0.549381   10.916003
  32 H     1.0000    0     1.008    8.606701   -2.553625   10.333136
  33 H     1.0000    0     1.008    5.674054   -6.225778   10.559601
  34 H     1.0000    0     1.008    3.239898   -4.175104   11.294704
  35 H     1.0000    0     1.008    5.560368   -2.833493   15.143434
  36 H     1.0000    0     1.008    7.968465   -4.941672   14.391587
  37 H     1.0000    0     1.008    5.207235   -6.762801   17.354338
  38 H     1.0000    0     1.008    4.995945   -8.303098   14.684041
  39 H     1.0000    0     1.008    2.704897   -6.285891   15.392330
  40 H     1.0000    0     1.008    7.501117   -0.810560    2.133463
  41 N     7.0000    0    14.007   11.285917    0.000624    7.910224
  42 C     6.0000    0    12.011   14.053629    0.000076    7.807271
  43 C     6.0000    0    12.011   14.956786    0.000643   10.566952
  44 O     8.0000    0    15.999   13.497709    0.001398   12.376364
  45 C     6.0000    0    12.011   17.919687    2.048803    5.733278
  46 C     6.0000    0    12.011   15.115541    2.305504    6.349669
  47 O     8.0000    0    15.999   13.856039    2.705275    3.980916
  48 H     1.0000    0     1.008   18.541199    3.618164    4.533472
  49 H     1.0000    0     1.008   18.282137    0.311994    4.665866
  50 H     1.0000    0     1.008   19.094114    2.044362    7.431065
  51 H     1.0000    0     1.008   14.830930    4.031032    7.460204
  52 H     1.0000    0     1.008   14.630241   -1.765420    6.887598
  53 H     1.0000    0     1.008   13.123600    1.096967    3.424240
  54 H     1.0000    0     1.008   10.463300    0.709441    9.495175
  55 N     7.0000    0    14.007   17.434802    0.000340   11.088176
  56 C     6.0000    0    12.011   18.296234    0.001285   13.720338
  57 C     6.0000    0    12.011   21.204995    0.000605   13.607049
  58 O     8.0000    0    15.999   22.390023   -0.000529   11.605394
  59 H     1.0000    0     1.008   17.654162    1.779536   14.572850
  60 C     6.0000    0    12.011   17.274138   -2.293428   15.168473
  61 H     1.0000    0     1.008   15.259539   -2.562601   14.788071
  62 S    16.0000    0    32.060   17.604235   -2.019078   18.594773
  63 H     1.0000    0     1.008   18.241470   -4.025684   14.570620
  64 H     1.0000    0     1.008   16.220502   -4.064971   19.172594
  65 H     1.0000    0     1.008   18.774826   -0.251957    9.732165
  66 N     7.0000    0    14.007   22.555488    0.001247   15.749091
  67 C     6.0000    0    12.011   25.287389    0.000189   15.642699
  68 C     6.0000    0    12.011   26.377534    0.001191   18.311219
  69 O     8.0000    0    15.999   25.072319    0.002683   20.231219
  70 H     1.0000    0     1.008   25.913266   -1.693762   14.631299
  71 H     1.0000    0     1.008   25.916025    1.686959   14.627217
  72 H     1.0000    0     1.008   21.729923   -0.002305   17.482631
  73 N     7.0000    0    14.007   28.886467    0.000454   18.653959
  74 C     6.0000    0    12.011   29.928216    0.001833   21.203974
  75 C     6.0000    0    12.011   32.819233    0.000510   20.915375
  76 O     8.0000    0    15.999   33.898342   -0.001361   18.858635
  77 C     6.0000    0    12.011   28.999756   -2.314669   22.673520
  78 C     6.0000    0    12.011   29.587404   -2.187717   25.498188
  79 C     6.0000    0    12.011   28.478135   -4.411698   26.915558
  80 O     8.0000    0    15.999   27.370019   -6.187870   25.933014
  81 N     7.0000    0    14.007   28.837977   -4.323221   29.466386
  82 H     1.0000    0     1.008   29.336751    1.747978   22.148006
  83 H     1.0000    0     1.008   29.889231   -0.903346   17.288349
  84 H     1.0000    0     1.008   29.825774   -4.040291   21.871520
  85 H     1.0000    0     1.008   26.946134   -2.499919   22.430426
  86 H     1.0000    0     1.008   28.811898   -0.446712   26.306896
  87 H     1.0000    0     1.008   31.632466   -2.206388   25.816418
  88 H     1.0000    0     1.008   28.122791   -5.758676   30.508570
  89 H     1.0000    0     1.008   29.703263   -2.877732   30.361247
  90 N     7.0000    0    14.007   34.296923    0.001361   22.971738
  91 C     6.0000    0    12.011   37.037895   -0.000302   22.698124
  92 C     6.0000    0    12.011   38.136658    0.001266   25.387715
  93 O     8.0000    0    15.999   36.824659    0.003496   27.304332
  94 C     6.0000    0    12.011   37.901821    2.315916   21.189310
  95 C     6.0000    0    12.011   40.672821    2.188586   20.385855
  96 C     6.0000    0    12.011   41.405959    4.412303   18.741718
  97 O     8.0000    0    15.999   40.019089    6.188532   18.222459
  98 N     7.0000    0    14.007   43.828343    4.323486   17.865206
  99 H     1.0000    0     1.008   37.594892   -1.746636   21.733684
 100 H     1.0000    0     1.008   33.559930    0.905424   24.497125
 101 H     1.0000    0     1.008   37.580152    4.041708   22.294498
 102 H     1.0000    0     1.008   36.725391    2.501053   19.488557
 103 H     1.0000    0     1.008   41.024065    0.447430   19.322147
 104 H     1.0000    0     1.008   41.911650    2.207370   22.043825
 105 H     1.0000    0     1.008   44.414441    5.758733   16.745071
 106 H     1.0000    0     1.008   45.024067    2.877902   18.210913
 107 N     7.0000    0    14.007   40.645590    0.000208   25.730454
 108 C     6.0000    0    12.011   41.687340    0.002116   28.280470
 109 C     6.0000    0    12.011   44.578356    0.000227   27.991871
 110 O     8.0000    0    15.999   45.657465   -0.002381   25.935131
 111 C     6.0000    0    12.011   40.758501   -2.313837   29.750658
 112 C     6.0000    0    12.011   41.346168   -2.186205   32.575288
 113 C     6.0000    0    12.011   40.236521   -4.409619   33.993263
 114 O     8.0000    0    15.999   39.128102   -6.185867   33.011229
 115 N     7.0000    0    14.007   40.596382   -4.320500   36.544072
 116 H     1.0000    0     1.008   41.096158    1.748620   29.224029
 117 H     1.0000    0     1.008   41.648203   -0.904121   24.365089
 118 H     1.0000    0     1.008   41.584236   -4.039800   28.949130
 119 H     1.0000    0     1.008   38.704842   -2.498804   29.507601
 120 H     1.0000    0     1.008   40.570927   -0.444842   33.383524
 121 H     1.0000    0     1.008   43.391211   -2.205121   32.893537
 122 H     1.0000    0     1.008   39.880969   -5.755539   37.586653
 123 H     1.0000    0     1.008   41.461895   -2.874878   37.438536
 124 N     7.0000    0    14.007   46.056027    0.001417   30.048233
 125 C     6.0000    0    12.011   48.811966   -0.000794   29.773127
 126 C     6.0000    0    12.011   49.885236    0.001361   32.471202
 127 O     8.0000    0    15.999   48.541679    0.004327   34.367958
 128 C     6.0000    0    12.011   52.542437    2.044079   27.460744
 129 C     6.0000    0    12.011   49.782265    2.302877   28.250366
 130 O     8.0000    0    15.999   48.377896    2.701571   25.964327
 131 H     1.0000    0     1.008   53.088870    3.612155   26.223295
 132 H     1.0000    0     1.008   52.836799    0.306230   26.374227
 133 H     1.0000    0     1.008   53.820326    2.040262   29.082110
 134 H     1.0000    0     1.008   49.568272    4.029425   29.375075
 135 H     1.0000    0     1.008   49.329260   -1.767347   28.820742
 136 H     1.0000    0     1.008   47.611366    1.093263   25.455631
 137 H     1.0000    0     1.008   45.334095    0.711917   31.680767
 138 O     8.0000    0    15.999   52.428354   -0.000170   32.695909

--------------------------------
INTERNAL COORDINATES (ANGSTROEM)
--------------------------------
 N      0   0   0     0.000000000000     0.00000000     0.00000000
 C      1   0   0     1.461450000000     0.00000000     0.00000000
 C      2   1   0     1.535203825751   108.46705034     0.00000000
 O      3   2   1     1.229173651890   123.13404915     0.00000000
 C      2   1   3     1.542268022621   112.19712055   237.42706994
 H      5   2   1     1.097202886845   111.24028393   117.65762040
 H      5   2   1     1.097894458179   111.00952425     0.15449122
 C      5   2   1     1.491384876181   111.60442919   239.34855475
 N      8   5   2     1.375850647163   122.41774934    65.86697841
 C      9   8   5     1.364594207045   107.36071879   181.64955907
 H     10   9   8     1.081702197095   122.41863490   178.92627196
 N     10   9   8     1.314043203019   111.56098054   359.06026605
 C     12  10   9     1.369730340688   105.45507388   359.80727685
 H     13  12  10     1.082722551765   121.06297386   180.67549538
 H      9   8   5     1.018132825519   125.85277034   359.16782239
 H      1   2   3     1.017309005711   117.08735136     8.52785658
 H      2   1   3     1.098069196818   106.36136092   114.62127838
 H      1   2   3     1.020003566758   109.47114980   175.00029763
 H      1   2   3     1.020004070433   109.47113980    99.99986914
 N      3   2   1     1.340005026334   120.00003797   180.00000000
 C     20   3   2     1.459388220762   119.99984300   179.99002660
 C     21  20   3     1.537672402757   106.33687736   180.00012519
 O     22  21  20     1.229842021643   123.22756288     0.00000000
 C     21  20   3     1.535064288328   110.37251818    58.16474413
 C     24  21  20     1.531315793231   113.83641549   185.56113205
 C     25  24  21     1.531591659843   111.22731394   172.43834735
 C     26  25  24     1.528037126840   111.23998461   176.22998273
 N     27  26  25     1.457084952568   110.33214227   178.51601344
 H     21  20   3     1.070005758396   111.89115294   300.28598399
 H     24  21  20     1.070003017799   108.36877217    63.03250473
 H     24  21  20     1.069998320887   106.91268749   307.10887181
 H     25  24  21     1.069999652009   109.03016550    51.09911614
 H     25  24  21     1.070004771672   108.44427868   293.05895874
 H     26  25  24     1.069998319812   109.02670713    54.77055458
 H     26  25  24     1.069999208458   108.43652136   297.70502867
 H     27  26  25     1.069999297850   109.25590231    58.01274856
 H     27  26  25     1.070002896585   108.96840825   299.29206507
 H     28  27  26     1.019999203186   109.47121207   175.98163024
 H     28  27  26     1.020001673381   109.47122523    59.52586174
 H     28  27  26     1.020001246127   109.47157936   300.40222005
 H     20   3   2     1.019999688333   124.34411385   329.38206212
 N     22  21  20     1.339997413766   120.00067908   179.99997172
 C     42  22  21     1.465622941483   120.00037073   179.98949072
 C     43  42  22     1.536576878812   105.99136046   180.00005327
 O     44  43  42     1.230024496545   122.99630219     0.00000000
 C     43  42  22     2.562285723451   144.46156913    46.75207996
 C     46  43  42     1.525377143562    33.83582353    19.97106284
 O     47  46  43     1.435344151275   106.14691251   236.31113103
 H     46  43  42     1.095883096457   143.94196113    10.36704042
 H     46  43  42     1.095696494884    90.32464171   250.95698713
 H     46  43  42     1.092437356465    95.79976145   142.00245434
 H     47  46  43     1.096270620376   108.81124279   122.21172559
 H     43  42  22     1.096719541815   107.13906661   296.96596978
 H     48  47  46     0.980479755477   108.54228326    99.77212403
 H     42  22  21     1.016680157473   118.09477857   335.28914507
 N     44  43  42     1.340003960479   120.00004125   180.00064110
 C     56  44  43     1.465576394085   120.00019064   179.99034571
 C     57  56  44     1.540417052165   105.89139099   179.99969804
 O     58  57  56     1.230938837230   122.85697239     0.00000000
 H     57  56  44     1.097479726419   107.13764500   296.23168910
 C     57  56  44     1.534384396232   111.39205417    58.24053477
 H     61  57  56     1.094229139623   110.76727782   314.22672875
 S     61  57  56     1.827291566554   113.51465608   194.31969829
 H     61  57  56     1.096542401323   110.66677861    72.77215325
 H     63  61  57     1.342304019252    96.30371632   171.14772337
 H     56  44  43     1.017628919155   122.46454072   351.07560862
 N     58  57  56     1.339997137497   119.99978031   179.99961854
 C     67  58  57     1.446755970853   119.99997006   179.98985303
 C     68  67  58     1.525409358074   109.99080308   180.00033939
 O     69  68  67     1.228556038852   123.57113242     0.00000000
 H     68  67  58     1.095297285717   108.75286219   300.24286883
 H     68  67  58     1.093692805362   108.82846863    59.61755553
 H     67  58  57     1.016065920007   122.30450464     0.15847345
 N     69  68  67     1.340001066380   119.99990886   180.00009285
 C     74  69  68     1.457671600156   120.00020656   179.98985417
 C     75  74  69     1.537463985920   106.52057834   180.00010139
 O     76  75  74     1.229088559096   123.38537322     0.00000000
 C     75  74  69     1.532585583418   110.37022164    58.61858603
 C     78  75  74     1.528232003264   113.32208705   191.14972834
 C     79  78  75     1.513993241729   111.80731098   175.85546536
 O     80  79  78     1.223773526352   124.91256469     4.05951323
 N     80  79  78     1.364008766247   114.17031109   183.17816961
 H     75  74  69     1.096054694849   108.32198017   297.42572083
 H     74  69  68     1.016141734700   114.91572224   328.77820197
 H     78  75  74     1.097743912623   109.97037282    68.24215645
 H     78  75  74     1.098699332575   109.21088276   312.40889731
 H     79  78  75     1.095603320961   110.04729967    55.38537617
 H     79  78  75     1.095268466815   110.55110771   295.52421862
 H     82  80  79     1.012122311630   117.46918558   179.57412956
 H     82  80  79     1.009458265655   123.61188535     2.35051455
 N     76  75  74     1.339999013619   120.00006579   180.00038771
 C     91  76  75     1.457669074276   120.00020873   179.99018125
 C     92  91  76     1.537455903563   106.52058920   179.99966567
 O     93  92  91     1.229100729680   123.38565563     0.00000000
 C     92  91  76     1.532583064600   110.37054035    58.61803096
 C     95  92  91     1.528231630284   113.32208291   191.15015857
 C     96  95  92     1.514001185865   111.80696183   175.85553667
 O     97  96  95     1.223764872024   124.91317805     4.05910610
 N     97  96  95     1.364015383271   114.17011913   183.17782768
 H     92  91  76     1.096057784289   108.32148880   297.42497964
 H     91  76  75     1.016143674930   114.91550233   328.77815817
 H     95  92  91     1.097742336115   109.97027768    68.24245567
 H     95  92  91     1.098705680562   109.21068689   312.40900289
 H     96  95  92     1.095597514327   110.04747650    55.38597457
 H     96  95  92     1.095270873711   110.55105120   295.52354816
 H     99  97  96     1.012119476643   117.46936992   179.57397039
 H     99  97  96     1.009464564509   123.61124164     2.35112918
 N     93  92  91     1.340001126641   120.00006867   179.99974649
 C    108  93  92     1.457671767271   120.00019177   179.98987529
 C    109 108  93     1.537464151777   106.52056125   179.99992331
 O    110 109 108     1.229088935106   123.38538254     0.00000000
 C    109 108  93     1.532590340893   110.37030645    58.61876145
 C    112 109 108     1.528230344189   113.32213922   191.14977097
 C    113 112 109     1.513996190880   111.80707335   175.85520033
 O    114 113 112     1.223766241527   124.91319761     4.05912828
 N    114 113 112     1.364011979200   114.17003311   183.17805421
 H    109 108  93     1.096058148914   108.32207897   297.42591732
 H    108  93  92     1.016139344037   114.91572924   328.77862757
 H    112 109 108     1.097737318169   109.97015390    68.24209156
 H    112 109 108     1.098703400058   109.21026899   312.40892101
 H    113 112 109     1.095613055645   110.04719825    55.38569130
 H    113 112 109     1.095261304119   110.55152574   295.52414585
 H    116 114 113     1.012116550897   117.46944498   179.57434876
 H    116 114 113     1.009467260044   123.61158646     2.35157297
 N    110 109 108     1.339993250655   119.99970309   179.99984184
 C    125 110 109     1.465628578358   119.99986721   179.99021679
 C    126 125 110     1.536576428200   105.99161254   180.00018449
 O    127 126 125     1.230019863132   122.99615245     0.00000000
 C    126 125 110     2.562279464071   144.46177513    46.75090411
 C    129 126 125     1.525373629443    33.83566655    19.97194751
 O    130 129 126     1.435347283552   106.14692268   236.31061053
 H    129 126 125     1.095886526334   143.94229399    10.36819819
 H    129 126 125     1.095701889840    90.32502960   250.95772219
 H    129 126 125     1.092445849184    95.79971897   142.00352801
 H    130 129 126     1.096269560373   108.81148851   122.21184288
 H    126 125 110     1.096730532264   107.13878141   296.96563799
 H    131 130 129     0.980477495611   108.54210587    99.77183873
 H    125 110 109     1.016676492942   118.09566412   335.28959261
 O    127 126 125     1.351003412949   116.74165685   179.99987809

---------------------------
INTERNAL COORDINATES (A.U.)
---------------------------
 N      0   0   0     0.000000000000     0.00000000     0.00000000
 C      1   0   0     2.761740258419     0.00000000     0.00000000
 C      2   1   0     2.901114790417   108.46705034     0.00000000
 O      3   2   1     2.322801573103   123.13404915     0.00000000
 C      2   1   3     2.914464187858   112.19712055   237.42706994
 H      5   2   1     2.073412969484   111.24028393   117.65762040
 H      5   2   1     2.074719849908   111.00952425     0.15449122
 C      5   2   1     2.818308976253   111.60442919   239.34855475
 N      8   5   2     2.599980924317   122.41774934    65.86697841
 C      9   8   5     2.578709335250   107.36071879   181.64955907
 H     10   9   8     2.044120910970   122.41863490   178.92627196
 N     10   9   8     2.483181781846   111.56098054   359.06026605
 C     12  10   9     2.588415221222   105.45507388   359.80727685
 H     13  12  10     2.046049101856   121.06297386   180.67549538
 H      9   8   5     1.923992208187   125.85277034   359.16782239
 H      1   2   3     1.922435414365   117.08735136     8.52785658
 H      2   1   3     2.075050058080   106.36136092   114.62127838
 H      1   2   3     1.927527396796   109.47114980   175.00029763
 H      1   2   3     1.927528348603   109.47113980    99.99986914
 N      3   2   1     2.532242517849   120.00003797   180.00000000
 C     20   3   2     2.757844060312   119.99984300   179.99002660
 C     21  20   3     2.905779724899   106.33687736   180.00012519
 O     22  21  20     2.324064608894   123.22756288     0.00000000
 C     21  20   3     2.900851102903   110.37251818    58.16474413
 C     24  21  20     2.893767473756   113.83641549   185.56113205
 C     25  24  21     2.894288786101   111.22731394   172.43834735
 C     26  25  24     2.887571692191   111.23998461   176.22998273
 N     27  26  25     2.753491514211   110.33214227   178.51601344
 H     21  20   3     2.022017845087   111.89115294   300.28598399
 H     24  21  20     2.022012666110   108.36877217    63.03250473
 H     24  21  20     2.022003790231   106.91268749   307.10887181
 H     25  24  21     2.022006305689   109.03016550    51.09911614
 H     25  24  21     2.022015980448   108.44427868   293.05895874
 H     26  25  24     2.022003788200   109.02670713    54.77055458
 H     26  25  24     2.022005467497   108.43652136   297.70502867
 H     27  26  25     2.022005636425   109.25590231    58.01274856
 H     27  26  25     2.022012437048   108.96840825   299.29206507
 H     28  27  26     1.927519150839   109.47121207   175.98163024
 H     28  27  26     1.927523818831   109.47122523    59.52586174
 H     28  27  26     1.927523011438   109.47157936   300.40222005
 H     20   3   2     1.927520067635   124.34411385   329.38206212
 N     22  21  20     2.532228132181   120.00067908   179.99997172
 C     42  22  21     2.769625974994   120.00037073   179.98949072
 C     43  42  22     2.903709484670   105.99136046   180.00005327
 O     44  43  42     2.324409436484   122.99630219     0.00000000
 C     43  42  22     4.842018294178   144.46156913    46.75207996
 C     46  43  42     2.882545052274    33.83582353    19.97106284
 O     47  46  43     2.712407353836   106.14691251   236.31113103
 H     46  43  42     2.070918927097   143.94196113    10.36704042
 H     46  43  42     2.070566301227    90.32464171   250.95698713
 H     46  43  42     2.064407422184    95.79976145   142.00245434
 H     47  46  43     2.071651241175   108.81124279   122.21172559
 H     43  42  22     2.072499579751   107.13906661   296.96596978
 H     48  47  46     1.852838217705   108.54228326    99.77212403
 H     42  22  21     1.921247063417   118.09477857   335.28914507
 N     44  43  42     2.532240503676   120.00004125   180.00064110
 C     56  44  43     2.769538013161   120.00019064   179.99034571
 C     57  56  44     2.910966360614   105.89139099   179.99969804
 O     58  57  56     2.326137289971   122.85697239     0.00000000
 H     57  56  44     2.073936120462   107.13764500   296.23168910
 C     57  56  44     2.899566293040   111.39205417    58.24053477
 H     61  57  56     2.067793401644   110.76727782   314.22672875
 S     61  57  56     3.453080627611   113.51465608   194.31969829
 H     61  57  56     2.072164832734   110.66677861    72.77215325
 H     63  61  57     2.536586984848    96.30371632   171.14772337
 H     56  44  43     1.923039963161   122.46454072   351.07560862
 N     58  57  56     2.532227610108   119.99978031   179.99961854
 C     67  58  57     2.733972567528   119.99997006   179.98985303
 C     68  67  58     2.882605928881   109.99080308   180.00033939
 O     69  68  67     2.321634453606   123.57113242     0.00000000
 H     68  67  58     2.069811905233   108.75286219   300.24286883
 H     68  67  58     2.066779876774   108.82846863    59.61755553
 H     67  58  57     1.920086322824   122.30450464     0.15847345
 N     69  68  67     2.532235034621   119.99990886   180.00009285
 C     74  69  68     2.754600117489   120.00020656   179.98985417
 C     75  74  69     2.905385874155   106.52057834   180.00010139
 O     76  75  74     2.322640771027   123.38537322     0.00000000
 C     75  74  69     2.896167029456   110.37022164    58.61858603
 C     78  75  74     2.887939955263   113.32208705   191.14972834
 C     79  78  75     2.861032595475   111.80731098   175.85546536
 O     80  79  78     2.312596814748   124.91256469     4.05951323
 N     80  79  78     2.577603012476   114.17031109   183.17816961
 H     75  74  69     2.071243201063   108.32198017   297.42572083
 H     74  69  68     1.920229591831   114.91572224   328.77820197
 H     78  75  74     2.074435360036   109.97037282    68.24215645
 H     78  75  74     2.076240842088   109.21088276   312.40889731
 H     79  78  75     2.070390228030   110.04729967    55.38537617
 H     79  78  75     2.069757445401   110.55110771   295.52421862
 H     82  80  79     1.912633983013   117.46918558   179.57412956
 H     82  80  79     1.907599665712   123.61188535     2.35051455
 N     76  75  74     2.532231155465   120.00006579   180.00038771
 C     91  76  75     2.754595344268   120.00020873   179.99018125
 C     92  91  76     2.905370600714   106.52058920   179.99966567
 O     93  92  91     2.322663770098   123.38565563     0.00000000
 C     92  91  76     2.896162269581   110.37054035    58.61803096
 C     95  92  91     2.887939250432   113.32208291   191.15015857
 C     96  95  92     2.861047607716   111.80696183   175.85553667
 O     97  96  95     2.312580460439   124.91317805     4.05910610
 N     97  96  95     2.577615516838   114.17011913   183.17782768
 H     92  91  76     2.071249039258   108.32148880   297.42497964
 H     91  76  75     1.920233258334   114.91550233   328.77815817
 H     95  92  91     2.074432380869   109.97027768    68.24245567
 H     95  92  91     2.076252838046   109.21068689   312.40900289
 H     96  95  92     2.070379255083   110.04747650    55.38597457
 H     96  95  92     2.069761993775   110.55105120   295.52354816
 H     99  97  96     1.912628625663   117.46936992   179.57397039
 H     99  97  96     1.907611568821   123.61124164     2.35112918
 N     93  92  91     2.532235148498   120.00006867   179.99974649
 C    108  93  92     2.754600433292   120.00019177   179.98987529
 C    109 108  93     2.905386187580   106.52056125   179.99992331
 O    110 109 108     2.322641481583   123.38538254     0.00000000
 C    109 108  93     2.896176019782   110.37030645    58.61876145
 C    112 109 108     2.887936820065   113.32213922   191.14977097
 C    113 112 109     2.861038168564   111.80707335   175.85520033
 O    114 113 112     2.312583048423   124.91319761     4.05912828
 N    114 113 112     2.577609084075   114.17003311   183.17805421
 H    109 108  93     2.071249728299   108.32207897   297.42591732
 H    108  93  92     1.920225074132   114.91572924   328.77862757
 H    112 109 108     2.074422898324   109.97015390    68.24209156
 H    112 109 108     2.076248528519   109.21026899   312.40892101
 H    113 112 109     2.070408623918   110.04719825    55.38569130
 H    113 112 109     2.069743909866   110.55152574   295.52414585
 H    116 114 113     1.912623096805   117.46944498   179.57434876
 H    116 114 113     1.907616662642   123.61158646     2.35157297
 N    110 109 108     2.532220265040   119.99970309   179.99984184
 C    125 110 109     2.769636627145   119.99986721   179.99021679
 C    126 125 110     2.903708633137   105.99161254   180.00018449
 O    127 126 125     2.324400680603   122.99615245     0.00000000
 C    126 125 110     4.842006465665   144.46177513    46.75090411
 C    129 126 125     2.882538411553    33.83566655    19.97194751
 O    130 129 126     2.712413272981   106.14692268   236.31061053
 H    129 126 125     2.070925408625   143.94229399    10.36819819
 H    129 126 125     2.070576496218    90.32502960   250.95772219
 H    129 126 125     2.064423471097    95.79971897   142.00352801
 H    130 129 126     2.071649238059   108.81148851   122.21184288
 H    126 125 110     2.072520348689   107.13878141   296.96563799
 H    131 130 129     1.852833947178   108.54210587    99.77183873
 H    125 110 109     1.921240138455   118.09566412   335.28959261
 O    127 126 125     2.553026456467   116.74165685   179.99987809

---------------------
BASIS SET INFORMATION
---------------------
There are 5 groups of distinct atoms

 Group   1 Type N   : 6s3p contracted to 2s1p pattern {33/3}
 Group   2 Type C   : 6s3p contracted to 2s1p pattern {33/3}
 Group   3 Type O   : 6s3p contracted to 2s1p pattern {33/3}
 Group   4 Type H   : 3s contracted to 1s pattern {3}
 Group   5 Type S   : 9s6p1d contracted to 3s2p1d pattern {333/33/1}

Atom   0N    basis set group =>   1
Atom   1C    basis set group =>   2
Atom   2C    basis set group =>   2
Atom   3O    basis set group =>   3
Atom   4C    basis set group =>   2
Atom   5H    basis set group =>   4
Atom   6H    basis set group =>   4
Atom   7C    basis set group =>   2
Atom   8N    basis set group =>   1
Atom   9C    basis set group =>   2
Atom  10H    basis set group =>   4
Atom  11N    basis set group =>   1
Atom  12C    basis set group =>   2
Atom  13H    basis set group =>   4
Atom  14H    basis set group =>   4
Atom  15H    basis set group =>   4
Atom  16H    basis set group =>   4
Atom  17H    basis set group =>   4
Atom  18H    basis set group =>   4
Atom  19N    basis set group =>   1
Atom  20C    basis set group =>   2
Atom  21C    basis set group =>   2
Atom  22O    basis set group =>   3
Atom  23C    basis set group =>   2
Atom  24C    basis set group =>   2
Atom  25C    basis set group =>   2
Atom  26C    basis set group =>   2
Atom  27N    basis set group =>   1
Atom  28H    basis set group =>   4
Atom  29H    basis set group =>   4
Atom  30H    basis set group =>   4
Atom  31H    basis set group =>   4
Atom  32H    basis set group =>   4
Atom  33H    basis set group =>   4
Atom  34H    basis set group =>   4
Atom  35H    basis set group =>   4
Atom  36H    basis set group =>   4
Atom  37H    basis set group =>   4
Atom  38H    basis set group =>   4
Atom  39H    basis set group =>   4
Atom  40H    basis set group =>   4
Atom  41N    basis set group =>   1
Atom  42C    basis set group =>   2
Atom  43C    basis set group =>   2
Atom  44O    basis set group =>   3
Atom  45C    basis set group =>   2
Atom  46C    basis set group =>   2
Atom  47O    basis set group =>   3
Atom  48H    basis set group =>   4
Atom  49H    basis set group =>   4
Atom  50H    basis set group =>   4
Atom  51H    basis set group =>   4
Atom  52H    basis set group =>   4
Atom  53H    basis set group =>   4
Atom  54H    basis set group =>   4
Atom  55N    basis set group =>   1
Atom  56C    basis set group =>   2
Atom  57C    basis set group =>   2
Atom  58O    basis set group =>   3
Atom  59H    basis set group =>   4
Atom  60C    basis set group =>   2
Atom  61H    basis set group =>   4
Atom  62S    basis set group =>   5
Atom  63H    basis set group =>   4
Atom  64H    basis set group =>   4
Atom  65H    basis set group =>   4
Atom  66N    basis set group =>   1
Atom  67C    basis set group =>   2
Atom  68C    basis set group =>   2
Atom  69O    basis set group =>   3
Atom  70H    basis set group =>   4
Atom  71H    basis set group =>   4
Atom  72H    basis set group =>   4
Atom  73N    basis set group =>   1
Atom  74C    basis set group =>   2
Atom  75C    basis set group =>   2
Atom  76O    basis set group =>   3
Atom  77C    basis set group =>   2
Atom  78C    basis set group =>   2
Atom  79C    basis set group =>   2
Atom  80O    basis set group =>   3
Atom  81N    basis set group =>   1
Atom  82H    basis set group =>   4
Atom  83H    basis set group =>   4
Atom  84H    basis set group =>   4
Atom  85H    basis set group =>   4
Atom  86H    basis set group =>   4
Atom  87H    basis set group =>   4
Atom  88H    basis set group =>   4
Atom  89H    basis set group =>   4
Atom  90N    basis set group =>   1
Atom  91C    basis set group =>   2
Atom  92C    basis set group =>   2
Atom  93O    basis set group =>   3
Atom  94C    basis set group =>   2
Atom  95C    basis set group =>   2
Atom  96C    basis set group =>   2
Atom  97O    basis set group =>   3
Atom  98N    basis set group =>   1
Atom  99H    basis set group =>   4
Atom 100H    basis set group =>   4
Atom 101H    basis set group =>   4
Atom 102H    basis set group =>   4
Atom 103H    basis set group =>   4
Atom 104H    basis set group =>   4
Atom 105H    basis set group =>   4
Atom 106H    basis set group =>   4
Atom 107N    basis set group =>   1
Atom 108C    basis set group =>   2
Atom 109C    basis set group =>   2
Atom 110O    basis set group =>   3
Atom 111C    basis set group =>   2
Atom 112C    basis set group =>   2
Atom 113C    basis set group =>   2
Atom 114O    basis set group =>   3
Atom 115N    basis set group =>   1
Atom 116H    basis set group =>   4
Atom 117H    basis set group =>   4
Atom 118H    basis set group =>   4
Atom 119H    basis set group =>   4
Atom 120H    basis set group =>   4
Atom 121H    basis set group =>   4
Atom 122H    basis set group =>   4
Atom 123H    basis set group =>   4
Atom 124N    basis set group =>   1
Atom 125C    basis set group =>   2
Atom 126C    basis set group =>   2
Atom 127O    basis set group =>   3
Atom 128C    basis set group =>   2
Atom 129C    basis set group =>   2
Atom 130O    basis set group =>   3
Atom 131H    basis set group =>   4
Atom 132H    basis set group =>   4
Atom 133H    basis set group =>   4
Atom 134H    basis set group =>   4
Atom 135H    basis set group =>   4
Atom 136H    basis set group =>   4
Atom 137H    basis set group =>   4
Atom 138O    basis set group =>   3
--------------------------------------------------------------------------
WARNING: No preset parameters were found for the device that Open MPI
detected:

  Local host:            c0703a-s21
  Device name:           mlx5_0
  Device vendor ID:      0x02c9
  Device vendor part ID: 4123

Default device parameters will be used, which may result in lower
performance.  You can edit any of the files specified by the
btl_openib_device_param_files MCA parameter to set values for your
device.

NOTE: You can turn off this warning by setting the MCA parameter
      btl_openib_warn_no_device_params_found to 0.
--------------------------------------------------------------------------
--------------------------------------------------------------------------
WARNING: There was an error initializing an OpenFabrics device.

  Local host:   c0703a-s21
  Local device: mlx5_0
--------------------------------------------------------------------------


           ************************************************************
           *        Program running with 15 parallel MPI-processes    *
           *              working on a common directory               *
           ************************************************************
------------------------------------------------------------------------------
                           ORCA GTO INTEGRAL CALCULATION
------------------------------------------------------------------------------

                         BASIS SET STATISTICS AND STARTUP INFO

 # of primitive gaussian shells          ...  850
 # of primitive gaussian functions       ... 1286
 # of contracted shells                  ...  284
 # of contracted basis functions         ...  432
 Highest angular momentum                ...    2
 Maximum contraction depth               ...    3
 Integral package used                   ... LIBINT
 Integral threshhold            Thresh   ...  1.000e-10
 Primitive cut-off              TCut     ...  1.000e-11


------------------------------ INTEGRAL EVALUATION ----------------------------


 * One electron integrals 
 Pre-screening matrix                    ... done
 Shell pair data                         ... done (   0.007 sec)

[c0703a-s21.ufhpc:83208] 14 more processes have sent help message help-mpi-btl-openib.txt / no device params found
[c0703a-s21.ufhpc:83208] Set MCA parameter "orte_base_help_aggregate" to 0 to see all help / error messages
[c0703a-s21.ufhpc:83208] 14 more processes have sent help message help-mpi-btl-openib.txt / error in device init
--------------------------------------------------------------------------
WARNING: No preset parameters were found for the device that Open MPI
detected:

  Local host:            c0703a-s21
  Device name:           mlx5_0
  Device vendor ID:      0x02c9
  Device vendor part ID: 4123

Default device parameters will be used, which may result in lower
performance.  You can edit any of the files specified by the
btl_openib_device_param_files MCA parameter to set values for your
device.

NOTE: You can turn off this warning by setting the MCA parameter
      btl_openib_warn_no_device_params_found to 0.
--------------------------------------------------------------------------
--------------------------------------------------------------------------
WARNING: There was an error initializing an OpenFabrics device.

  Local host:   c0703a-s21
  Local device: mlx5_0
--------------------------------------------------------------------------


           ************************************************************
           *        Program running with 15 parallel MPI-processes    *
           *              working on a common directory               *
           ************************************************************
-------------------------------------------------------------------------------
                                 ORCA SCF
-------------------------------------------------------------------------------

------------
SCF SETTINGS
------------
Hamiltonian:
 Ab initio Hamiltonian  Method          .... Hartree-Fock(GTOs)


General Settings:
 Integral files         IntName         .... HKTCGQQQT
 Hartree-Fock type      HFTyp           .... UHF
 Total Charge           Charge          ....    0
 Multiplicity           Mult            ....    2
 Number of Electrons    NEL             ....  549
 Basis Dimension        Dim             ....  432
 Nuclear Repulsion      ENuc            ....  10647.1016846869 Eh

Convergence Acceleration:
 DIIS                   CNVDIIS         .... off
 Newton-Raphson         CNVNR           .... off
 SOSCF                  CNVSOSCF        .... off
 Level Shifting         CNVShift        .... off
 Zerner damping         CNVZerner       .... off
 Static damping         CNVDamp         .... off
 Fernandez-Rico         CNVRico         .... off

SCF Procedure:
 Maximum # iterations   MaxIter         .... 10000
 SCF integral mode      SCFMode         .... Direct
   Integral package                     .... LIBINT
 Reset frequency        DirectResetFreq ....    20
 Integral Threshold     Thresh          ....  1.000e-10 Eh
 Primitive CutOff       TCut            ....  1.000e-11 Eh

Convergence Tolerance:
 Convergence Check Mode ConvCheckMode   .... All-Criteria
 Convergence forced     ConvForced      .... 0
 Energy Change          TolE            ....  1.000e-06 Eh
 Max Density Change     TolMaxP         ....  1.000e-05
 RMS Density Change     TolRMSP         ....  1.000e-06


Diagonalization of the overlap matrix:
Smallest eigenvalue                        ... 1.862e-01
Time for diagonalization                   ...    0.063 sec
Threshold for overlap eigenvalues          ... 1.000e-08
Number of eigenvalues below threshold      ... 0
Time for construction of square roots      ...    0.064 sec
Total time needed                          ...    0.127 sec

--------------------------------
INITIAL GUESS: MINIMAL BASIS EHT
--------------------------------
The minimal basis has 427 functions
EHT matrix was diagonalized
Basis set overlap was calculated now projecting the orbitals
Using GuessMode=FMatrix for the initial guess
C*T matrix was formed
Effective Fockian was calculated
Effective Fockian was diagonalized
Initial density was built
                      ------------------
                      INITIAL GUESS DONE
                      ------------------

--------------------
CPCM SOLVATION MODEL
--------------------
CPCM parameters:
  Epsilon                                         ...      78.3550
  Refrac                                          ...       1.3300
  Rsolv                                           ...       1.3000
  Surface type                                    ...    GEPOL SES
  Epsilon function type                           ...         CPCM
Solvent:                                     ... WATER
SMD-CDS solvent descriptors:
  Soln                                       ...    1.3328
  Soln25                                     ...    1.3323
  Sola                                       ...    0.0000
  Solb                                       ...    0.0000
  Solg                                       ...    0.0000
  Solc                                       ...    0.0000
  Solh                                       ...    0.0000
Radii:
 Radius for N  used is    3.5716 Bohr (=   1.8900 Ang.)
 Radius for C  used is    3.4960 Bohr (=   1.8500 Ang.)
 Radius for O  used is    2.8724 Bohr (=   1.5200 Ang.)
 Radius for H  used is    2.2677 Bohr (=   1.2000 Ang.)
 Radius for S  used is    4.7054 Bohr (=   2.4900 Ang.)
Calculating surface                               ...        done! (  0.7s)
GEPOL surface points                              ...         6675
GEPOL Volume                                      ...    7088.4264
GEPOL Surface-area                                ...    3614.2095
Calculating surface distance matrix               ...        done! (  0.4s)
Performing Cholesky decomposition & store         ...        [c0703a-s21.ufhpc:83717] 14 more processes have sent help message help-mpi-btl-openib.txt / no device params found
[c0703a-s21.ufhpc:83717] Set MCA parameter "orte_base_help_aggregate" to 0 to see all help / error messages
[c0703a-s21.ufhpc:83717] 14 more processes have sent help message help-mpi-btl-openib.txt / error in device init
done! (  4.4s)
Overall time for CPCM initialization              ...                 5.5s
--------------
SCF ITERATIONS
--------------
ITER       Energy         Delta-E        Max-DP      RMS-DP      [F,P]   Gradient Norm
               ***  Starting incremental Fock matrix formation  ***
                             ****Resetting KDIIS****
                             ****Turning on KDIIS(Cayley)****
  0  -3859.6884836570   0.000000000000 0.02989798  0.00064997  0.5400437   0.196545653
  1  -3860.8358895050  -1.147405848025 0.04625253  0.00089550  0.4884046   0.176551531
  2  -3862.2459994700  -1.410109965016 0.08563763  0.00160387  0.3928599   0.142767791
  3  -3864.0081063533  -1.762106883247 0.13883655  0.00253309  0.2364000   0.086345278
  4  -3865.0327355744  -1.024629221139 0.00691454  0.00014842  0.0040923   0.003334909
  5  -3865.0377009755  -0.004965401050 0.00836376  0.00014788  0.0036846   0.001671605
  6  -3865.0398537718  -0.002152796363 0.00288590  0.00003159  0.0016431   0.000483814
  7  -3865.0400008447  -0.000147072920 0.00265742  0.00002253  0.0011862   0.000212024
  8  -3865.0400446084  -0.000043763669 0.00139131  0.00000853  0.0006358   0.000072170
  9  -3865.0400505302  -0.000005921828 0.00072115  0.00000392  0.0003171   0.000035309
 10  -3865.0400518991  -0.000001368826 0.00085994  0.00000396  0.0001713   0.000019988
                          ***Energy convergence achieved***
 11  -3865.0400525752  -0.000000676153 0.00051860  0.00000202  0.0000558   0.000009039
 12  -3865.0400527216  -0.000000146337 0.00041139  0.00000153  0.0000353   0.000005773
                           ***RMSP convergence achieved***
 13  -3865.0400527778  -0.000000056253 0.00024495  0.00000091  0.0000191   0.000003989
 14  -3865.0400528003  -0.000000022449 0.00014615  0.00000060  0.0000139   0.000002640

            ***Energy convergence in two consecutive cycles with***
                    ***'reasonable' density convergence***
                       *** signaling convergence ***

                    *** KDIIS BlockDiag (71.236 sec) ***

               *****************************************************
               *                     SUCCESS                       *
               *           SCF CONVERGED AFTER  15 CYCLES          *
               *****************************************************


SMD CDS free energy correction energy :                23.35873     Kcal/mol
Total Energy after SMD CDS correction =             -3865.002828309 Eh

----------------
TOTAL SCF ENERGY
----------------

Total Energy       :        -3865.00282831 Eh         -105172.07380 eV

Components:
Nuclear Repulsion  :        10647.10168469 Eh          289722.36604 eV
Electronic Energy  :       -14512.10451300 Eh         -394894.43984 eV
One Electron Energy:       -26529.05684865 Eh         -721892.33715 eV
Two Electron Energy:        12016.95233565 Eh          326997.89730 eV
CPCM Dielectric    :           -0.77028238 Eh             -20.96045 eV
SMD CDS (Gcds)     :            0.03722450 Eh               1.01293 eV

Virial components:
Potential Energy   :        -7735.13437104 Eh         -210483.70702 eV
Kinetic Energy     :         3870.13154273 Eh          105311.63322 eV
Virial Ratio       :            1.99867480

CPCM Solvation Model Properties:
Surface-charge          :           -0.03999514
Charge-correction       :           -0.00105537 Eh              -0.02872 eV
Free-energy (cav+disp)  :            0.01301437 Eh               0.35414 eV
Corrected G(solv)       :        -3864.99086931 Eh         -105171.74838 eV

---------------
SCF CONVERGENCE
---------------

  Last Energy change         ...   -1.1778e-08  Tolerance :   1.0000e-06
  Last MAX-Density change    ...    5.5031e-05  Tolerance :   1.0000e-05
  Last RMS-Density change    ...    2.8195e-07  Tolerance :   1.0000e-06

             **** THE GBW FILE WAS UPDATED (HKTCGQQQT.gbw) ****
             **** DENSITY FILE WAS UPDATED (HKTCGQQQT.scfp) ****
             **** ENERGY FILE WAS UPDATED (HKTCGQQQT.en.tmp) ****
----------------------
UHF SPIN CONTAMINATION
----------------------

Expectation value of <S**2>     :     0.755232
Ideal value S*(S+1) for S=0.5   :     0.750000
Deviation                       :     0.005232

             **** THE GBW FILE WAS UPDATED (HKTCGQQQT.gbw) ****
             **** DENSITY FILE WAS UPDATED (HKTCGQQQT.scfp) ****
----------------
ORBITAL ENERGIES
----------------
                 SPIN UP ORBITALS
  NO   OCC          E(Eh)            E(eV) 
   0   1.0000     -91.277637     -2483.7908 
   1   1.0000     -20.311952      -552.7163 
   2   1.0000     -20.307527      -552.5959 
   3   1.0000     -20.277205      -551.7708 
   4   1.0000     -20.276973      -551.7645 
   5   1.0000     -20.276152      -551.7422 
   6   1.0000     -20.274519      -551.6977 
   7   1.0000     -20.273039      -551.6574 
   8   1.0000     -20.267396      -551.5039 
   9   1.0000     -20.264612      -551.4281 
  10   1.0000     -20.264188      -551.4166 
  11   1.0000     -20.263064      -551.3860 
  12   1.0000     -20.183693      -549.2262 
  13   1.0000     -20.128625      -547.7277 
  14   1.0000     -19.883699      -541.0629 
  15   1.0000     -19.790487      -538.5265 
  16   1.0000     -15.629349      -425.2962 
  17   1.0000     -15.615479      -424.9188 
  18   1.0000     -15.504145      -421.8892 
  19   1.0000     -15.457725      -420.6261 
  20   1.0000     -15.454842      -420.5476 
  21   1.0000     -15.444965      -420.2789 
  22   1.0000     -15.442833      -420.2209 
  23   1.0000     -15.434675      -419.9989 
  24   1.0000     -15.433168      -419.9579 
  25   1.0000     -15.430791      -419.8932 
  26   1.0000     -15.409396      -419.3110 
  27   1.0000     -15.408956      -419.2990 
  28   1.0000     -15.408159      -419.2773 
  29   1.0000     -15.400522      -419.0695 
  30   1.0000     -15.389966      -418.7823 
  31   1.0000     -11.367041      -309.3129 
  32   1.0000     -11.366433      -309.2964 
  33   1.0000     -11.341548      -308.6192 
  34   1.0000     -11.341265      -308.6115 
  35   1.0000     -11.336760      -308.4889 
  36   1.0000     -11.330051      -308.3064 
  37   1.0000     -11.328007      -308.2507 
  38   1.0000     -11.327346      -308.2328 
  39   1.0000     -11.326884      -308.2202 
  40   1.0000     -11.325837      -308.1917 
  41   1.0000     -11.325254      -308.1758 
  42   1.0000     -11.300232      -307.4949 
  43   1.0000     -11.257256      -306.3255 
  44   1.0000     -11.256804      -306.3132 
  45   1.0000     -11.255183      -306.2691 
  46   1.0000     -11.246355      -306.0289 
  47   1.0000     -11.241658      -305.9011 
  48   1.0000     -11.240414      -305.8672 
  49   1.0000     -11.237710      -305.7936 
  50   1.0000     -11.237705      -305.7935 
  51   1.0000     -11.236215      -305.7530 
  52   1.0000     -11.222403      -305.3771 
  53   1.0000     -11.220150      -305.3158 
  54   1.0000     -11.219533      -305.2990 
  55   1.0000     -11.199271      -304.7476 
  56   1.0000     -11.183454      -304.3172 
  57   1.0000     -11.174594      -304.0761 
  58   1.0000     -11.174139      -304.0638 
  59   1.0000     -11.173696      -304.0517 
  60   1.0000     -11.171851      -304.0015 
  61   1.0000     -11.169997      -303.9511 
  62   1.0000     -11.167810      -303.8916 
  63   1.0000     -11.164947      -303.8136 
  64   1.0000     -11.164322      -303.7967 
  65   1.0000     -11.163012      -303.7610 
  66   1.0000     -11.157795      -303.6190 
  67   1.0000     -11.142150      -303.1933 
  68   1.0000     -11.109314      -302.2998 
  69   1.0000     -11.106560      -302.2249 
  70   1.0000     -10.959035      -298.2105 
  71   1.0000      -8.898567      -242.1423 
  72   1.0000      -6.547874      -178.1767 
  73   1.0000      -6.546392      -178.1364 
  74   1.0000      -6.543514      -178.0581 
  75   1.0000      -1.450879       -39.4804 
  76   1.0000      -1.428467       -38.8706 
  77   1.0000      -1.414048       -38.4782 
  78   1.0000      -1.407485       -38.2996 
  79   1.0000      -1.404213       -38.2106 
  80   1.0000      -1.399549       -38.0837 
  81   1.0000      -1.394969       -37.9590 
  82   1.0000      -1.391710       -37.8703 
  83   1.0000      -1.379577       -37.5402 
  84   1.0000      -1.379158       -37.5288 
  85   1.0000      -1.378263       -37.5044 
  86   1.0000      -1.375576       -37.4313 
  87   1.0000      -1.358845       -36.9760 
  88   1.0000      -1.344261       -36.5792 
  89   1.0000      -1.292984       -35.1839 
  90   1.0000      -1.253337       -34.1050 
  91   1.0000      -1.251008       -34.0417 
  92   1.0000      -1.245841       -33.9011 
  93   1.0000      -1.232218       -33.5304 
  94   1.0000      -1.230119       -33.4732 
  95   1.0000      -1.229095       -33.4454 
  96   1.0000      -1.227753       -33.4089 
  97   1.0000      -1.225391       -33.3446 
  98   1.0000      -1.203394       -32.7460 
  99   1.0000      -1.178840       -32.0779 
 100   1.0000      -1.178411       -32.0662 
 101   1.0000      -1.177565       -32.0432 
 102   1.0000      -1.176388       -32.0111 
 103   1.0000      -1.148537       -31.2533 
 104   1.0000      -1.124110       -30.5886 
 105   1.0000      -1.107576       -30.1387 
 106   1.0000      -1.099603       -29.9217 
 107   1.0000      -1.090894       -29.6847 
 108   1.0000      -1.081421       -29.4270 
 109   1.0000      -1.069075       -29.0910 
 110   1.0000      -1.063345       -28.9351 
 111   1.0000      -1.041261       -28.3342 
 112   1.0000      -1.021117       -27.7860 
 113   1.0000      -1.017532       -27.6885 
 114   1.0000      -1.004558       -27.3354 
 115   1.0000      -1.002025       -27.2665 
 116   1.0000      -0.990088       -26.9417 
 117   1.0000      -0.985906       -26.8279 
 118   1.0000      -0.972512       -26.4634 
 119   1.0000      -0.969417       -26.3792 
 120   1.0000      -0.959590       -26.1118 
 121   1.0000      -0.945124       -25.7181 
 122   1.0000      -0.935782       -25.4639 
 123   1.0000      -0.900838       -24.5131 
 124   1.0000      -0.893784       -24.3211 
 125   1.0000      -0.875479       -23.8230 
 126   1.0000      -0.870906       -23.6986 
 127   1.0000      -0.858002       -23.3474 
 128   1.0000      -0.855076       -23.2678 
 129   1.0000      -0.852117       -23.1873 
 130   1.0000      -0.844473       -22.9793 
 131   1.0000      -0.840553       -22.8726 
 132   1.0000      -0.817495       -22.2452 
 133   1.0000      -0.814790       -22.1716 
 134   1.0000      -0.804788       -21.8994 
 135   1.0000      -0.800873       -21.7928 
 136   1.0000      -0.799092       -21.7444 
 137   1.0000      -0.793666       -21.5967 
 138   1.0000      -0.788229       -21.4488 
 139   1.0000      -0.786758       -21.4088 
 140   1.0000      -0.782429       -21.2910 
 141   1.0000      -0.779204       -21.2032 
 142   1.0000      -0.776275       -21.1235 
 143   1.0000      -0.773653       -21.0522 
 144   1.0000      -0.772066       -21.0090 
 145   1.0000      -0.769762       -20.9463 
 146   1.0000      -0.763320       -20.7710 
 147   1.0000      -0.760987       -20.7075 
 148   1.0000      -0.755860       -20.5680 
 149   1.0000      -0.751018       -20.4362 
 150   1.0000      -0.739682       -20.1278 
 151   1.0000      -0.736088       -20.0300 
 152   1.0000      -0.733275       -19.9534 
 153   1.0000      -0.713876       -19.4256 
 154   1.0000      -0.706217       -19.2171 
 155   1.0000      -0.702294       -19.1104 
 156   1.0000      -0.698320       -19.0022 
 157   1.0000      -0.696238       -18.9456 
 158   1.0000      -0.695848       -18.9350 
 159   1.0000      -0.692999       -18.8575 
 160   1.0000      -0.688454       -18.7338 
 161   1.0000      -0.683636       -18.6027 
 162   1.0000      -0.681935       -18.5564 
 163   1.0000      -0.675526       -18.3820 
 164   1.0000      -0.673922       -18.3383 
 165   1.0000      -0.670074       -18.2336 
 166   1.0000      -0.668102       -18.1800 
 167   1.0000      -0.661666       -18.0048 
 168   1.0000      -0.660125       -17.9629 
 169   1.0000      -0.659542       -17.9471 
 170   1.0000      -0.657042       -17.8790 
 171   1.0000      -0.655028       -17.8242 
 172   1.0000      -0.653469       -17.7818 
 173   1.0000      -0.648451       -17.6452 
 174   1.0000      -0.647193       -17.6110 
 175   1.0000      -0.638851       -17.3840 
 176   1.0000      -0.633329       -17.2338 
 177   1.0000      -0.628417       -17.1001 
 178   1.0000      -0.626989       -17.0612 
 179   1.0000      -0.622489       -16.9388 
 180   1.0000      -0.620886       -16.8952 
 181   1.0000      -0.620442       -16.8831 
 182   1.0000      -0.615600       -16.7513 
 183   1.0000      -0.615321       -16.7437 
 184   1.0000      -0.613567       -16.6960 
 185   1.0000      -0.611319       -16.6348 
 186   1.0000      -0.607653       -16.5351 
 187   1.0000      -0.601369       -16.3641 
 188   1.0000      -0.598645       -16.2900 
 189   1.0000      -0.597015       -16.2456 
 190   1.0000      -0.594323       -16.1723 
 191   1.0000      -0.590517       -16.0688 
 192   1.0000      -0.585709       -15.9379 
 193   1.0000      -0.582724       -15.8567 
 194   1.0000      -0.578596       -15.7444 
 195   1.0000      -0.575796       -15.6682 
 196   1.0000      -0.573080       -15.5943 
 197   1.0000      -0.570657       -15.5284 
 198   1.0000      -0.568758       -15.4767 
 199   1.0000      -0.567613       -15.4455 
 200   1.0000      -0.566497       -15.4152 
 201   1.0000      -0.564064       -15.3490 
 202   1.0000      -0.558517       -15.1980 
 203   1.0000      -0.558192       -15.1892 
 204   1.0000      -0.557738       -15.1768 
 205   1.0000      -0.555765       -15.1231 
 206   1.0000      -0.554332       -15.0841 
 207   1.0000      -0.551164       -14.9979 
 208   1.0000      -0.548939       -14.9374 
 209   1.0000      -0.543666       -14.7939 
 210   1.0000      -0.541828       -14.7439 
 211   1.0000      -0.539734       -14.6869 
 212   1.0000      -0.539010       -14.6672 
 213   1.0000      -0.535156       -14.5623 
 214   1.0000      -0.532223       -14.4825 
 215   1.0000      -0.529140       -14.3986 
 216   1.0000      -0.527823       -14.3628 
 217   1.0000      -0.523175       -14.2363 
 218   1.0000      -0.520128       -14.1534 
 219   1.0000      -0.517099       -14.0710 
 220   1.0000      -0.514292       -13.9946 
 221   1.0000      -0.511101       -13.9078 
 222   1.0000      -0.507040       -13.7973 
 223   1.0000      -0.505210       -13.7475 
 224   1.0000      -0.503271       -13.6947 
 225   1.0000      -0.501255       -13.6398 
 226   1.0000      -0.498960       -13.5774 
 227   1.0000      -0.496087       -13.4992 
 228   1.0000      -0.495000       -13.4696 
 229   1.0000      -0.493811       -13.4373 
 230   1.0000      -0.491586       -13.3767 
 231   1.0000      -0.489829       -13.3289 
 232   1.0000      -0.482013       -13.1162 
 233   1.0000      -0.479288       -13.0421 
 234   1.0000      -0.476465       -12.9653 
 235   1.0000      -0.474754       -12.9187 
 236   1.0000      -0.472251       -12.8506 
 237   1.0000      -0.460597       -12.5335 
 238   1.0000      -0.453520       -12.3409 
 239   1.0000      -0.447290       -12.1714 
 240   1.0000      -0.434093       -11.8123 
 241   1.0000      -0.425830       -11.5874 
 242   1.0000      -0.419714       -11.4210 
 243   1.0000      -0.417729       -11.3670 
 244   1.0000      -0.409578       -11.1452 
 245   1.0000      -0.406908       -11.0725 
 246   1.0000      -0.406354       -11.0574 
 247   1.0000      -0.405047       -11.0219 
 248   1.0000      -0.403922       -10.9913 
[...]
  5 H      0.8146     1.0000     0.1854     0.9656     0.9656     0.0000
  6 H      0.8247     1.0000     0.1753     0.9693     0.9693     0.0000
  7 C      5.9232     6.0000     0.0768     3.9391     3.9391     0.0000
  8 N      7.3764     7.0000    -0.3764     3.4128     3.4128     0.0000
  9 C      5.9216     6.0000     0.0784     3.9012     3.9012     0.0000
 10 H      0.8245     1.0000     0.1755     0.9692     0.9692     0.0000
 11 N      7.3422     7.0000    -0.3422     3.0102     3.0102     0.0000
 12 C      6.0956     6.0000    -0.0956     3.9404     3.9404     0.0000
 13 H      0.8513     1.0000     0.1487     0.9779     0.9779     0.0000
 14 H      0.6774     1.0000     0.3226     0.8959     0.8959     0.0000
 15 H      0.5757     1.0000     0.4243     0.8199     0.8199    -0.0000
 16 H      0.7835     1.0000     0.2165     0.9531     0.9531     0.0000
 17 H      0.5814     1.0000     0.4186     0.8248     0.8248     0.0000
 18 H      0.6057     1.0000     0.3943     0.8445     0.8445     0.0000
 19 N      7.4078     7.0000    -0.4078     3.2211     3.2211    -0.0000
 20 C      6.0174     6.0000    -0.0174     3.9217     3.9217     0.0000
 21 C      5.5595     6.0000     0.4405     3.8830     3.8830     0.0000
 22 O      8.4887     8.0000    -0.4887     2.0827     2.0827     0.0000
 23 C      6.2420     6.0000    -0.2420     3.9441     3.9441    -0.0000
 24 C      6.2454     6.0000    -0.2454     3.9569     3.9569    -0.0000
 25 C      6.2442     6.0000    -0.2442     3.9483     3.9483     0.0000
 26 C      6.1221     6.0000    -0.1221     3.8153     3.8153     0.0000
 27 N      7.4967     7.0000    -0.4967     3.4207     3.4207    -0.0000
 28 H      0.8174     1.0000     0.1826     0.9667     0.9667    -0.0000
 29 H      0.8607     1.0000     0.1393     0.9806     0.9806     0.0000
 30 H      0.8362     1.0000     0.1638     0.9732     0.9732    -0.0000
 31 H      0.8631     1.0000     0.1369     0.9813     0.9813    -0.0000
 32 H      0.8610     1.0000     0.1390     0.9807     0.9807    -0.0000
 33 H      0.8527     1.0000     0.1473     0.9783     0.9783     0.0000
 34 H      0.8528     1.0000     0.1472     0.9783     0.9783     0.0000
 35 H      0.8139     1.0000     0.1861     0.9654     0.9654     0.0000
 36 H      0.8142     1.0000     0.1858     0.9655     0.9655     0.0000
 37 H      0.6075     1.0000     0.3925     0.8459     0.8459    -0.0000
 38 H      0.6120     1.0000     0.3880     0.8495     0.8495    -0.0000
 39 H      0.6095     1.0000     0.3905     0.8475     0.8475    -0.0000
 40 H      0.6991     1.0000     0.3009     0.9095     0.9095    -0.0000
 41 N      7.4026     7.0000    -0.4026     3.2480     3.2480     0.0000
 42 C      6.0340     6.0000    -0.0340     3.9171     3.9171     0.0000
 43 C      5.5940     6.0000     0.4060     3.9123     3.9123     0.0000
 44 O      8.4860     8.0000    -0.4860     1.9948     1.9948     0.0000
 45 C      6.3726     6.0000    -0.3726     3.9467     3.9467     0.0000
 46 C      5.9594     6.0000     0.0406     3.9382     3.9382     0.0000
 47 O      8.6106     8.0000    -0.6106     1.7955     1.7955     0.0000
 48 H      0.8638     1.0000     0.1362     0.9815     0.9815     0.0000
 49 H      0.8699     1.0000     0.1301     0.9831     0.9831    -0.0000
 50 H      0.8801     1.0000     0.1199     0.9856     0.9856    -0.0000
 51 H      0.8652     1.0000     0.1348     0.9818     0.9818    -0.0000
 52 H      0.8206     1.0000     0.1794     0.9678     0.9678     0.0000
 53 H      0.6076     1.0000     0.3924     0.8460     0.8460     0.0000
 54 H      0.6984     1.0000     0.3016     0.9091     0.9091    -0.0000
 55 N      7.4071     7.0000    -0.4071     3.2347     3.2347     0.0000
 56 C      6.0187     6.0000    -0.0187     3.9287     3.9287     0.0000
 57 C      5.5907     6.0000     0.4093     3.9114     3.9114     0.0000
 58 O      8.4933     8.0000    -0.4933     1.9899     1.9899     0.0000
 59 H      0.8192     1.0000     0.1808     0.9673     0.9673     0.0000
 60 C      6.2580     6.0000    -0.2580     3.9238     3.9238     0.0000
 61 H      0.8178     1.0000     0.1822     0.9668     0.9668    -0.0000
 62 S     16.2525    16.0000    -0.2525     2.0054     2.0054    -0.0000
 63 H      0.8402     1.0000     0.1598     0.9745     0.9745    -0.0000
 64 H      0.8069     1.0000     0.1931     0.9627     0.9627     0.0000
 65 H      0.7048     1.0000     0.2952     0.9129     0.9129     0.0000
 66 N      7.4101     7.0000    -0.4101     3.2396     3.2396     0.0000
 67 C      6.1406     6.0000    -0.1406     3.8979     3.8979     0.0000
 68 C      5.5983     6.0000     0.4017     3.9128     3.9128     0.0000
 69 O      8.4802     8.0000    -0.4802     1.9964     1.9964     0.0000
 70 H      0.8241     1.0000     0.1759     0.9690     0.9690     0.0000
 71 H      0.8223     1.0000     0.1777     0.9684     0.9684     0.0000
 72 H      0.7098     1.0000     0.2902     0.9158     0.9158     0.0000
 73 N      7.4111     7.0000    -0.4111     3.2084     3.2084     0.0000
 74 C      6.0185     6.0000    -0.0185     3.9258     3.9258     0.0000
 75 C      5.5963     6.0000     0.4037     3.9086     3.9086     0.0000
 76 O      8.4829     8.0000    -0.4829     1.9934     1.9934     0.0000
 77 C      6.2312     6.0000    -0.2312     3.9450     3.9450     0.0000
 78 C      6.2705     6.0000    -0.2705     3.9501     3.9501     0.0000
 79 C      5.5938     6.0000     0.4062     3.9024     3.9024     0.0000
 80 O      8.5060     8.0000    -0.5060     1.9777     1.9777     0.0000
 81 N      7.5221     7.0000    -0.5221     3.1437     3.1437     0.0000
 82 H      0.8246     1.0000     0.1754     0.9692     0.9692     0.0000
 83 H      0.7136     1.0000     0.2864     0.9180     0.9180     0.0000
 84 H      0.8608     1.0000     0.1392     0.9806     0.9806     0.0000
 85 H      0.8362     1.0000     0.1638     0.9732     0.9732     0.0000
 86 H      0.8438     1.0000     0.1562     0.9756     0.9756     0.0000
 87 H      0.8408     1.0000     0.1592     0.9747     0.9747     0.0000
 88 H      0.7242     1.0000     0.2758     0.9240     0.9240     0.0000
 89 H      0.7215     1.0000     0.2785     0.9225     0.9225     0.0000
 90 N      7.4116     7.0000    -0.4116     3.2108     3.2108     0.0000
 91 C      6.0189     6.0000    -0.0189     3.9262     3.9262     0.0000
 92 C      5.5974     6.0000     0.4026     3.9092     3.9092     0.0000
 93 O      8.4819     8.0000    -0.4819     1.9944     1.9944     0.0000
 94 C      6.2311     6.0000    -0.2311     3.9452     3.9452     0.0000
 95 C      6.2704     6.0000    -0.2704     3.9502     3.9502     0.0000
 96 C      5.5939     6.0000     0.4061     3.9025     3.9025     0.0000
 97 O      8.5060     8.0000    -0.5060     1.9777     1.9777     0.0000
 98 N      7.5221     7.0000    -0.5221     3.1438     3.1438     0.0000
 99 H      0.8251     1.0000     0.1749     0.9694     0.9694     0.0000
100 H      0.7149     1.0000     0.2851     0.9187     0.9187     0.0000
101 H      0.8609     1.0000     0.1391     0.9807     0.9807     0.0000
102 H      0.8365     1.0000     0.1635     0.9733     0.9733     0.0000
103 H      0.8438     1.0000     0.1562     0.9756     0.9756     0.0000
104 H      0.8412     1.0000     0.1588     0.9748     0.9748     0.0000
105 H      0.7242     1.0000     0.2758     0.9240     0.9240     0.0000
106 H      0.7215     1.0000     0.2785     0.9224     0.9224     0.0000
107 N      7.4120     7.0000    -0.4120     3.2112     3.2112     0.0000
108 C      6.0188     6.0000    -0.0188     3.9261     3.9261     0.0000
109 C      5.5830     6.0000     0.4170     3.9001     3.9001     0.0000
110 O      8.5088     8.0000    -0.5088     2.0602     2.0602     0.0000
111 C      6.2310     6.0000    -0.2310     3.9455     3.9455     0.0000
112 C      6.2708     6.0000    -0.2708     3.9495     3.9495     0.0000
113 C      5.5940     6.0000     0.4060     3.9020     3.9020     0.0000
114 O      8.5066     8.0000    -0.5066     1.9771     1.9771     0.0000
115 N      7.5222     7.0000    -0.5222     3.1435     3.1435     0.0000
116 H      0.8257     1.0000     0.1743     0.9696     0.9696     0.0000
117 H      0.7157     1.0000     0.2843     0.9192     0.9192     0.0000
118 H      0.8615     1.0000     0.1385     0.9808     0.9808     0.0000
119 H      0.8371     1.0000     0.1629     0.9735     0.9735     0.0000
120 H      0.8444     1.0000     0.1556     0.9758     0.9758     0.0000
121 H      0.8387     1.0000     0.1613     0.9740     0.9740     0.0000
122 H      0.7246     1.0000     0.2754     0.9242     0.9242     0.0000
123 H      0.7215     1.0000     0.2785     0.9225     0.9225     0.0000
124 N      7.4087     7.0000    -0.4087     3.2762     3.2761     0.0000
125 C      6.0589     6.0000    -0.0589     3.8381     3.8344     0.0037
126 C      5.9303     6.0000     0.0697     3.8012     3.4495     0.3517
127 O      8.8340     8.0000    -0.8340     1.6106     1.5549     0.0557
128 C      6.3715     6.0000    -0.3715     3.9540     3.9540     0.0000
129 C      5.9630     6.0000     0.0370     3.9346     3.9331     0.0015
130 O      8.6476     8.0000    -0.6476     1.7820     1.7820     0.0000
131 H      0.8949     1.0000     0.1051     0.9890     0.9890     0.0000
132 H      0.8932     1.0000     0.1068     0.9886     0.9886     0.0000
133 H      0.8698     1.0000     0.1302     0.9831     0.9831     0.0000
134 H      0.9066     1.0000     0.0934     0.9913     0.9913     0.0000
135 H      0.9245     1.0000     0.0755     0.9943     0.9930     0.0013
136 H      0.6201     1.0000     0.3799     0.8557     0.8557     0.0000
137 H      0.7242     1.0000     0.2758     0.9239     0.9239     0.0000
138 O      8.8986     8.0000    -0.8986     1.3944     1.3740     0.0203

  Mayer bond orders larger than 0.100000
B(  0-N ,  1-C ) :   0.9145 B(  0-N , 15-H ) :   0.7806 B(  0-N , 17-H ) :   0.7873 
B(  0-N , 18-H ) :   0.8128 B(  1-C ,  2-C ) :   0.9502 B(  1-C ,  4-C ) :   0.9771 
B(  1-C , 16-H ) :   0.9245 B(  2-C ,  3-O ) :   1.7485 B(  2-C , 19-N ) :   1.1823 
B(  3-O , 19-N ) :   0.1483 B(  4-C ,  5-H ) :   0.9482 B(  4-C ,  6-H ) :   0.9436 
B(  4-C ,  7-C ) :   1.0190 B(  7-C ,  8-N ) :   1.1678 B(  7-C ,  9-C ) :   0.1135 
B(  7-C , 12-C ) :   1.5911 B(  8-N ,  9-C ) :   1.1982 B(  8-N , 14-H ) :   0.8741 
B(  9-C , 10-H ) :   0.9433 B(  9-C , 11-N ) :   1.5987 B( 11-N , 12-C ) :   1.2624 
B( 12-C , 13-H ) :   0.9589 B( 19-N , 20-C ) :   0.9660 B( 19-N , 40-H ) :   0.8741 
B( 20-C , 21-C ) :   0.9573 B( 20-C , 23-C ) :   0.9785 B( 20-C , 28-H ) :   0.9330 
B( 21-C , 22-O ) :   1.6398 B( 21-C , 41-N ) :   1.2223 B( 22-O , 41-N ) :   0.1408 
B( 22-O , 53-H ) :   0.1646 B( 23-C , 24-C ) :   1.0060 B( 23-C , 29-H ) :   0.9643 
B( 23-C , 30-H ) :   0.9463 B( 24-C , 25-C ) :   1.0043 B( 24-C , 31-H ) :   0.9641 
B( 24-C , 32-H ) :   0.9607 B( 25-C , 26-C ) :   1.0025 B( 25-C , 33-H ) :   0.9611 
B( 25-C , 34-H ) :   0.9611 B( 26-C , 27-N ) :   0.9001 B( 26-C , 35-H ) :   0.9481 
B( 26-C , 36-H ) :   0.9485 B( 27-N , 37-H ) :   0.8345 B( 27-N , 38-H ) :   0.8373 
B( 27-N , 39-H ) :   0.8351 B( 41-N , 42-C ) :   0.9554 B( 41-N , 54-H ) :   0.8750 
B( 42-C , 43-C ) :   0.9537 B( 42-C , 46-C ) :   0.9632 B( 42-C , 52-H ) :   0.9338 
B( 43-C , 44-O ) :   1.7347 B( 43-C , 55-N ) :   1.1844 B( 44-O , 55-N ) :   0.1528 
B( 45-C , 46-C ) :   0.9999 B( 45-C , 48-H ) :   0.9704 B( 45-C , 49-H ) :   0.9728 
B( 45-C , 50-H ) :   0.9693 B( 46-C , 47-O ) :   0.9873 B( 46-C , 51-H ) :   0.9493 
B( 47-O , 53-H ) :   0.6666 B( 55-N , 56-C ) :   0.9655 B( 55-N , 65-H ) :   0.8730 
B( 56-C , 57-C ) :   0.9511 B( 56-C , 59-H ) :   0.9317 B( 56-C , 60-C ) :   0.9873 
B( 57-C , 58-O ) :   1.7325 B( 57-C , 66-N ) :   1.1906 B( 58-O , 66-N ) :   0.1561 
B( 60-C , 61-H ) :   0.9403 B( 60-C , 62-S ) :   1.0035 B( 60-C , 63-H ) :   0.9544 
B( 62-S , 64-H ) :   0.9534 B( 66-N , 67-C ) :   0.9715 B( 66-N , 72-H ) :   0.8800 
B( 67-C , 68-C ) :   0.9668 B( 67-C , 70-H ) :   0.9388 B( 67-C , 71-H ) :   0.9381 
B( 68-C , 69-O ) :   1.7450 B( 68-C , 73-N ) :   1.1689 B( 69-O , 73-N ) :   0.1427 
B( 73-N , 74-C ) :   0.9638 B( 73-N , 83-H ) :   0.8856 B( 74-C , 75-C ) :   0.9531 
B( 74-C , 77-C ) :   0.9836 B( 74-C , 82-H ) :   0.9349 B( 75-C , 76-O ) :   1.7462 
B( 75-C , 90-N ) :   1.1675 B( 76-O , 90-N ) :   0.1416 B( 77-C , 78-C ) :   1.0084 
B( 77-C , 84-H ) :   0.9624 B( 77-C , 85-H ) :   0.9455 B( 78-C , 79-C ) :   0.9696 
B( 78-C , 86-H ) :   0.9521 B( 78-C , 87-H ) :   0.9463 B( 79-C , 80-O ) :   1.7452 
B( 79-C , 81-N ) :   1.1654 B( 80-O , 81-N ) :   0.1534 B( 81-N , 88-H ) :   0.9042 
B( 81-N , 89-H ) :   0.9035 B( 90-N , 91-C ) :   0.9636 B( 90-N ,100-H ) :   0.8854 
B( 91-C , 92-C ) :   0.9529 B( 91-C , 94-C ) :   0.9837 B( 91-C , 99-H ) :   0.9352 
B( 92-C , 93-O ) :   1.7464 B( 92-C ,107-N ) :   1.1680 B( 93-O ,107-N ) :   0.1419 
B( 94-C , 95-C ) :   1.0084 B( 94-C ,101-H ) :   0.9624 B( 94-C ,102-H ) :   0.9456 
B( 95-C , 96-C ) :   0.9696 B( 95-C ,103-H ) :   0.9521 B( 95-C ,104-H ) :   0.9464 
B( 96-C , 97-O ) :   1.7451 B( 96-C , 98-N ) :   1.1655 B( 97-O , 98-N ) :   0.1534 
B( 98-N ,105-H ) :   0.9042 B( 98-N ,106-H ) :   0.9035 B(107-N ,108-C ) :   0.9627 
B(107-N ,117-H ) :   0.8858 B(108-C ,109-C ) :   0.9541 B(108-C ,111-C ) :   0.9838 
B(108-C ,116-H ) :   0.9351 B(109-C ,110-O ) :   1.6076 B(109-C ,124-N ) :   1.2647 
B(110-O ,124-N ) :   0.1537 B(110-O ,136-H ) :   0.1649 B(111-C ,112-C ) :   1.0084 
B(111-C ,118-H ) :   0.9626 B(111-C ,119-H ) :   0.9459 B(112-C ,113-C ) :   0.9696 
B(112-C ,120-H ) :   0.9522 B(112-C ,121-H ) :   0.9449 B(113-C ,114-O ) :   1.7447 
B(113-C ,115-N ) :   1.1652 B(114-O ,115-N ) :   0.1532 B(115-N ,122-H ) :   0.9044 
B(115-N ,123-H ) :   0.9035 B(124-N ,125-C ) :   0.9160 B(124-N ,137-H ) :   0.8808 
B(125-C ,126-C ) :   0.8663 B(125-C ,129-C ) :   0.9594 B(125-C ,135-H ) :   0.9502 
B(126-C ,127-O ) :   1.3522 B(126-C ,138-O ) :   1.1843 B(127-O ,138-O ) :   0.1162 
B(128-C ,129-C ) :   1.0006 B(128-C ,131-H ) :   0.9776 B(128-C ,132-H ) :   0.9780 
B(128-C ,133-H ) :   0.9663 B(129-C ,130-O ) :   0.9640 B(129-C ,134-H ) :   0.9581 
B(130-O ,136-H ) :   0.6761 

-------
TIMINGS
-------

Total SCF time: 0 days 0 hours 1 min 11 sec 

Total time                  ....      71.766 sec
Sum of individual times     ....      65.311 sec  ( 91.0%)

Fock matrix formation       ....      60.720 sec  ( 84.6%)
Diagonalization             ....       3.573 sec  (  5.0%)
Density matrix formation    ....       0.082 sec  (  0.1%)
Population analysis         ....       0.257 sec  (  0.4%)
Initial guess               ....       0.678 sec  (  0.9%)
Orbital Transformation      ....       0.000 sec  (  0.0%)
Orbital Orthonormalization  ....       0.000 sec  (  0.0%)
DIIS solution               ....       0.000 sec  (  0.0%)


-------------------------------------------------------------------------------
                          DFT DISPERSION CORRECTION                            
                                                                               
                              DFTD3 V3.1  Rev 1                                
                          USING Becke-Johnson damping                          
-------------------------------------------------------------------------------
Hartree-Fock is recognized
Active option DFTDOPT                   ...         4   

molecular C6(AA) [au] = 178561.416646 


            DFT-D V3
 parameters
 using HF/MINIX parameters
 s6 scaling factor         :     1.0000 
 a1 scaling factor         :     0.4171 
 s8 scaling factor         :     0.8777 
 a2 scaling factor         :     2.9149 
 ad hoc parameters k1-k3   :    16.0000     1.3333    -4.0000 

 Edisp/kcal,au: -450.101937456011  -0.717283018102 
 E6   /kcal   : -257.615049285 
 E8   /kcal   : -192.486888171 
 % E8         :  42.765176542 

-------------------------   ----------------
Dispersion correction           -0.717283018
-------------------------   ----------------

------------------   -----------------
gCP+bas correction        -0.708779494
------------------   -----------------
----------------------------   ----------------
Total correction to HF/MINIX       -1.426062513
----------------------------   ----------------


-------------------------   --------------------
FINAL SINGLE POINT ENERGY     -3866.428890821250
-------------------------   --------------------


                            ***************************************
                            *     ORCA property calculations      *
                            ***************************************

                                    ---------------------
                                    Active property flags
                                    ---------------------
   (+) Dipole Moment


------------------------------------------------------------------------------
                       ORCA ELECTRIC PROPERTIES CALCULATION
------------------------------------------------------------------------------

Dipole Moment Calculation                       ... on
Quadrupole Moment Calculation                   ... off
Polarizability Calculation                      ... off
GBWName                                         ... HKTCGQQQT.gbw
Electron density file                           ... HKTCGQQQT.scfp
The origin for moment calculation is the CENTER OF MASS  = (25.459095, -0.388785 16.817917)

-------------
DIPOLE MOMENT
-------------
                                X             Y             Z
Electronic contribution:    -29.31374       2.29044     -22.45627
Nuclear contribution   :    -63.38410      -9.61245     -23.42128
                        -----------------------------------------
Total Dipole Moment    :    -92.69783      -7.32200     -45.87755
                        -----------------------------------------
Magnitude (a.u.)       :    103.68823
Magnitude (Debye)      :    263.55454



--------------------
Rotational spectrum 
--------------------
 
Rotational constants in cm-1:     0.002112     0.000164     0.000154 
Rotational constants in MHz :    63.326957     4.924995     4.606218 

 Dipole components along the rotational axes: 
x,y,z [a.u.] :   102.423599    16.144227     0.140443 
x,y,z [Debye]:   260.340099    41.035365     0.356979 

 
--------------------------------------------------------------------------
WARNING: No preset parameters were found for the device that Open MPI
detected:

  Local host:            c0703a-s21
  Device name:           mlx5_0
  Device vendor ID:      0x02c9
  Device vendor part ID: 4123

Default device parameters will be used, which may result in lower
performance.  You can edit any of the files specified by the
btl_openib_device_param_files MCA parameter to set values for your
device.

NOTE: You can turn off this warning by setting the MCA parameter
      btl_openib_warn_no_device_params_found to 0.
--------------------------------------------------------------------------
--------------------------------------------------------------------------
WARNING: There was an error initializing an OpenFabrics device.

  Local host:   c0703a-s21
  Local device: mlx5_0
--------------------------------------------------------------------------
[c0703a-s21.ufhpc:84376] 14 more processes have sent help message help-mpi-btl-openib.txt / no device params found
[c0703a-s21.ufhpc:84376] Set MCA parameter "orte_base_help_aggregate" to 0 to see all help / error messages
[c0703a-s21.ufhpc:84376] 14 more processes have sent help message help-mpi-btl-openib.txt / error in device init

Timings for individual modules:

Sum of individual times         ...       77.420 sec (=   1.290 min)
GTO integral calculation        ...        3.801 sec (=   0.063 min)   4.9 %
SCF iterations                  ...       73.620 sec (=   1.227 min)  95.1 %
                             ****ORCA TERMINATED NORMALLY****
TOTAL RUN TIME: 0 days 0 hours 1 minutes 19 seconds 22 msec
