/home/zfg2013/blue_zfg2013/INPS
c28a-s35.ufhpc
Fri Aug  4 00:08:24 EDT 2023

                                 *****************
                                 * O   R   C   A *
                                 *****************

           --- An Ab Initio, DFT and Semiempirical electronic structure package ---

                  #######################################################
                  #                        -***-                        #
                  #          Department of theory and spectroscopy      #
                  #               Directorship: Frank Neese             #
                  #        Max Planck Institute fuer Kohlenforschung    #
                  #                Kaiser Wilhelm Platz 1               #
                  #                 D-45470 Muelheim/Ruhr               #
                  #                      Germany                        #
                  #                                                     #
                  #                  All rights reserved                #
                  #                        -***-                        #
                  #######################################################


                         Program Version 4.2.1 -  RELEASE  -


 With contributions from (in alphabetic order):
   Daniel Aravena         : Magnetic Suceptibility
   Michael Atanasov       : Ab Initio Ligand Field Theory (pilot matlab implementation)
   Alexander A. Auer      : GIAO ZORA, VPT2
   Ute Becker             : Parallelization
   Giovanni Bistoni       : ED, misc. LED, open-shell LED, HFLD
   Martin Brehm           : Molecular dynamics
   Dmytro Bykov           : SCF Hessian
   Vijay G. Chilkuri      : MRCI spin determinant printing, contributions to CSF-ICE
   Dipayan Datta          : RHF DLPNO-CCSD density
   Achintya Kumar Dutta   : EOM-CC, STEOM-CC
   Dmitry Ganyushin       : Spin-Orbit,Spin-Spin,Magnetic field MRCI
   Miquel Garcia          : C-PCM Hessian, Gaussian charge scheme
   Yang Guo               : DLPNO-NEVPT2, CIM, IAO-localization
   Andreas Hansen         : Spin unrestricted coupled pair/coupled cluster methods
   Benjamin Helmich-Paris : CASSCF linear response (MC-RPA)
   Lee Huntington         : MR-EOM, pCC
   Robert Izsak           : Overlap fitted RIJCOSX, COSX-SCS-MP3, EOM
   Christian Kollmar      : KDIIS, OOCD, Brueckner-CCSD(T), CCSD density
   Simone Kossmann        : Meta GGA functionals, TD-DFT gradient, OOMP2, MP2 Hessian
   Martin Krupicka        : AUTO-CI
   Lucas Lang             : DCDCAS
   Dagmar Lenk            : GEPOL surface, SMD
   Dimitrios Liakos       : Extrapolation schemes; Compound Job, initial MDCI parallelization
   Dimitrios Manganas     : Further ROCIS development; embedding schemes
   Dimitrios Pantazis     : SARC Basis sets
   Taras Petrenko         : DFT Hessian,TD-DFT gradient, ASA, ECA, R-Raman, ABS, FL, XAS/XES, NRVS
   Peter Pinski           : DLPNO-MP2, DLPNO-MP2 Gradient
   Christoph Reimann      : Effective Core Potentials
   Marius Retegan         : Local ZFS, SOC
   Christoph Riplinger    : Optimizer, TS searches, QM/MM, DLPNO-CCSD(T), (RO)-DLPNO pert. Triples
   Tobias Risthaus        : Range-separated hybrids, TD-DFT gradient, RPA, STAB
   Michael Roemelt        : Original ROCIS implementation
   Masaaki Saitow         : Open-shell DLPNO-CCSD energy and density
   Barbara Sandhoefer     : DKH picture change effects
   Avijit Sen             : IP-ROCIS
   Kantharuban Sivalingam : CASSCF convergence, NEVPT2, FIC-MRCI
   Bernardo de Souza      : ESD, SOC TD-DFT
   Georgi Stoychev        : AutoAux, RI-MP2 NMR
   Willem Van den Heuvel  : Paramagnetic NMR
   Boris Wezisla          : Elementary symmetry handling
   Frank Wennmohs         : Technical directorship


 We gratefully acknowledge several colleagues who have allowed us to
 interface, adapt or use parts of their codes:
   Stefan Grimme, W. Hujo, H. Kruse,             : VdW corrections, initial TS optimization,
                  C. Bannwarth                     DFT functionals, gCP, sTDA/sTD-DF
   Ed Valeev, F. Pavosevic, A. Kumar             : LibInt (2-el integral package), F12 methods
   Garnet Chan, S. Sharma, J. Yang, R. Olivares  : DMRG
   Ulf Ekstrom                                   : XCFun DFT Library
   Mihaly Kallay                                 : mrcc  (arbitrary order and MRCC methods)
   Andreas Klamt, Michael Diedenhofen            : otool_cosmo (COSMO solvation model)
   Jiri Pittner, Ondrej Demel                    : Mk-CCSD
   Frank Weinhold                                : gennbo (NPA and NBO analysis)
   Christopher J. Cramer and Donald G. Truhlar   : smd solvation model
   Lars Goerigk                                  : TD-DFT with DH, B97 family of functionals
   V. Asgeirsson, H. Jonsson                     : NEB implementation
   FAccTs GmbH                                   : IRC, NEB, NEB-TS, Multilevel, MM, QM/MM, CI optimization
   S Lehtola, MJT Oliveira, MAL Marques          : LibXC Library


 Your calculation uses the libint2 library for the computation of 2-el integrals
 For citations please refer to: http://libint.valeyev.net

 Your ORCA version has been built with support for libXC version: 4.2.3
 For citations please refer to: https://tddft.org/programs/libxc/

 This ORCA versions uses:
   CBLAS   interface :  Fast vector & matrix operations
   LAPACKE interface :  Fast linear algebra routines
   SCALAPACK package :  Parallel linear algebra routines


Your calculation utilizes the geometrical counterpoise correction gCP
Please cite in your paper:
H.Kruse, S. Grimme J.Chem.Phys., 136, (2012), 154101 
   

Your calculation utilizes the atom-pairwise dispersion correction
with the Becke-Johnson damping scheme (D3BJ)
Cite in your paper:
S.Grimme, S.Ehrlich, L.Goerigk, J Comput Chem, (2011), 32, 1456–1465 
S.Grimme, J.Antony, S.Ehrlich and H.Krieg, J.Chem.Phys., 132, (2010), 154104 
   

Your calculation utilizes the SMD solvation module
Please cite in your paper:
A.V. Marenich, C.J. Cramer, D.G. Truhlar J. Phys. Chem. B, 113, (2009), 6378 

----- Orbital basis set information -----
Your calculation utilizes the basis: MINIX,
   a combination of small basis sets by S. Grimme (see manual for definitions).

================================================================================
                                        WARNINGS
                       Please study these warnings very carefully!
================================================================================


WARNING: your system is open-shell and RHF/RKS was chosen
  ===> : WILL SWITCH to UHF/UKS


INFO   : the flag for use of LIBINT has been found!

================================================================================
                                       INPUT FILE
================================================================================
NAME = CVDPDQQND.inp
|  1> !HF-3c CPCM KDIIS SmallPrint
|  2> %PAL NPROCS 15 END
|  3> %maxcore 10000
|  4> %CPCM
|  5> SMD TRUE
|  6> SMDSOLVENT "WATER"
|  7> END
|  8> 
|  9> %scf
| 10> SCFmode Direct
| 11> maxiter 10000
| 12> 
| 13> end
| 14> 
| 15> %geom
| 16> 
| 17> Constraints
| 18> {C 2 C}
| 19> {C 15 C}
| 20> {C 31 C}
| 21> {C 43 C}
| 22> {C 57 C}
| 23> {C 69 C}
| 24> {C 86 C}
| 25> {C 103 C}
| 26> {C 117 C}
| 27> 
| 28> end
| 29> 
| 30> maxiter 10000
| 31> 
| 32> end
| 33> 
| 34> * xyz 0 2
| 35>    N        0.00000         0.00000         0.00000
| 36>    C        1.46558         0.00000         0.00000
| 37>    C        1.88737         0.00000         1.48155
| 38>    O        1.07572         0.00000         2.40700
| 39>    H        1.78897         -0.94074         -0.46356
| 40>    C        2.02524         1.21477         -0.75197
| 41>    H        1.50229         1.35735         -1.70252
| 42>    S        3.80281         1.07033         -1.14996
| 43>    H        1.88346         2.13119         -0.16676
| 44>    H        3.86529         2.15326         -1.94061
| 45>    H        -0.46146         0.13304         0.89717
| 46>    H        -0.34000         0.08381         -0.95801
| 47>    H        -0.34000         0.94706         -0.16699
| 48>    N        3.18695         -0.00000         1.80818
| 49>    C        3.58692         0.00022         3.21308
| 50>    C        5.12815         0.00016         3.23357
| 51>    O        5.81312         -0.00004         2.21166
| 52>    C        2.94688         -1.18021         3.98008
| 53>    C        3.47756         -2.54538         3.53116
| 54>    C        3.08466         -1.03673         5.49720
| 55>    H        3.24344         0.94872         3.64554
| 56>    H        3.85596         -0.36571         1.13621
| 57>    H        1.86932         -1.17117         3.76417
| 58>    H        3.35000         -2.68621         2.45333
| 59>    H        2.93396         -3.35205         4.03504
| 60>    H        4.54000         -2.66478         3.76858
| 61>    H        2.47616         -1.79107         6.00808
| 62>    H        2.74072         -0.05261         5.83119
| 63>    H        4.11833         -1.17379         5.82936
| 64>    N        5.78266         0.00033         4.40285
| 65>    C        7.24678         0.00005         4.42232
| 66>    C        7.65153         0.00035         5.90962
| 67>    O        6.83057         0.00074         6.82599
| 68>    C        7.80898         1.22593         3.70382
| 69>    C        9.24908         1.02701         3.32952
| 70>    O        9.97468         0.10093         3.65527
| 71>    O        9.72607         2.04819         2.59253
| 72>    H        7.58486         -0.93672         3.96312
| 73>    H        7.73222         2.11884         4.33461
| 74>    H        7.25609         1.40895         2.77516
| 75>    H        5.30653         0.19958         5.27990
| 76>    N        8.94722         0.00018         6.25138
| 77>    C        9.32946         0.00069         7.65599
| 78>    C        10.85939         0.00040         7.84563
| 79>    O        11.67731         -0.00018         6.93166
| 80>    H        8.92913         0.89721         8.14314
| 81>    C        8.39301         -1.26806         5.82889
| 82>    H        7.31478         -1.13797         5.68526
| 83>    H        8.84101         -1.58940         4.88395
| 84>    C        8.69320         -2.21079         6.98441
| 85>    H        9.68638         -2.65807         6.85698
| 86>    H        7.96251         -3.01999         7.06734
| 87>    C        8.69697         -1.28311         8.19984
| 88>    H        9.22597         -1.72311         9.04992
| 89>    H        7.66212         -1.08516         8.50573
| 90>    N        11.38155         0.00080         9.07971
| 91>    C        12.83467         0.00030         9.25983
| 92>    C        13.07366         0.00096         10.78258
| 93>    O        12.15703         0.00173         11.60326
| 94>    C        13.47258         1.22590         8.60709
| 95>    C        14.94505         1.02666         8.39324
| 96>    O        15.63032         0.10057         8.79694
| 97>    O        15.50026         2.04757         7.71281
| 98>    H        13.22097         -0.93664         8.84077
| 99>    H        13.32719         2.11900         9.22540
|100>    H        13.02505         1.40874         7.62329
|101>    H        10.81202         0.20036         9.89911
|102>    N        14.32398         0.00069         11.26455
|103>    C        14.54999         0.00153         12.70459
|104>    C        16.07394         0.00096         12.90796
|105>    O        16.88008         -0.00002         11.98016
|106>    C        13.89303         -1.22432         13.34842
|107>    C        13.85174         -1.15705         14.87461
|108>    C        13.10800         -2.33395         15.46954
|109>    O        12.65705         -3.27394         14.82870
|110>    N        12.98274         -2.28706         16.82698
|111>    H        14.13038         0.92555         13.11869
|112>    H        15.00668         -0.47756         10.68341
|113>    H        14.41612         -2.13746         13.03603
|114>    H        12.86505         -1.32245         12.97320
|115>    H        13.35383         -0.23577         15.19660
|116>    H        14.86616         -1.16683         15.28749
|117>    H        12.48761         -3.04668         17.27666
|118>    H        13.31934         -1.52207         17.39312
|119>    N        16.58455         0.00153         14.14686
|120>    C        18.02942         0.00077         14.33967
|121>    C        18.26779         0.00172         15.85854
|122>    O        17.35879         0.00288         16.68581
|123>    C        18.65793         1.22647         13.66777
|124>    C        20.18277         1.15921         13.59139
|125>    C        20.76040         2.33594         12.83388
|126>    O        20.10934         3.27580         12.39756
|127>    N        22.11460         2.28903         12.67742
|128>    H        18.43376         -0.92334         13.91087
|129>    H        16.01926         0.47994         14.84264
|130>    H        18.35764         2.13973         14.19770
|131>    H        18.25915         1.32434         12.64868
|132>    H        20.49323         0.23781         13.08643
|133>    H        20.61888         1.16924         14.59604
|134>    H        22.55275         3.04854         12.17189
|135>    H        22.68835         1.52413         13.00109
|136>    N        19.51812         0.00128         16.34051
|137>    C        19.74529         0.00240         17.78795
|138>    C        21.27494         0.00152         17.97341
|139>    O        22.06191         0.00014         17.02593
|140>    C        19.11872         -1.22818         18.44295
|141>    H        18.08288         -1.35472         18.10534
|142>    H        19.67090         -2.13495         18.16703
|143>    C        19.08612         -1.12152         19.94909
|144>    O        19.46319         -0.14529         20.58799
|145>    N        18.62283         -2.23638         20.58285
|146>    H        18.23633         -3.03024         20.09023
|147>    H        18.55462         -2.21676         21.59267
|148>    H        19.33343         0.93460         18.19258
|149>    H        20.31971         -0.20308         15.74812
|150>    N        21.80039         0.00225         19.20610
|151>    C        23.25399         0.00118         19.38234
|152>    C        23.49704         0.00242         20.90445
|153>    O        22.58261         0.00398         21.72757
|154>    C        23.89071         1.22619         18.72734
|155>    C        25.36251         1.02619         18.50965
|156>    O        26.04844         0.09997         18.91195
|157>    O        25.91636         2.04654         17.82728
|158>    H        23.63875         -0.93613         18.96268
|159>    H        23.74736         2.11964         19.34563
|160>    H        23.44063         1.40879         17.74465
|161>    H        21.23314         0.20244         20.02693
|162>    O        24.78430         0.00172         21.31452
|163> *
|164> 
|165>                          ****END OF INPUT****
================================================================================

                       ****************************
                       * Single Point Calculation *
                       ****************************

---------------------------------
CARTESIAN COORDINATES (ANGSTROEM)
---------------------------------
  N      0.000000    0.000000    0.000000
  C      1.465580    0.000000    0.000000
  C      1.887370    0.000000    1.481550
  O      1.075720    0.000000    2.407000
  H      1.788970   -0.940740   -0.463560
  C      2.025240    1.214770   -0.751970
  H      1.502290    1.357350   -1.702520
  S      3.802810    1.070330   -1.149960
  H      1.883460    2.131190   -0.166760
  H      3.865290    2.153260   -1.940610
  H     -0.461460    0.133040    0.897170
  H     -0.340000    0.083810   -0.958010
  H     -0.340000    0.947060   -0.166990
  N      3.186950   -0.000000    1.808180
  C      3.586920    0.000220    3.213080
  C      5.128150    0.000160    3.233570
  O      5.813120   -0.000040    2.211660
  C      2.946880   -1.180210    3.980080
  C      3.477560   -2.545380    3.531160
  C      3.084660   -1.036730    5.497200
  H      3.243440    0.948720    3.645540
  H      3.855960   -0.365710    1.136210
  H      1.869320   -1.171170    3.764170
  H      3.350000   -2.686210    2.453330
  H      2.933960   -3.352050    4.035040
  H      4.540000   -2.664780    3.768580
  H      2.476160   -1.791070    6.008080
  H      2.740720   -0.052610    5.831190
  H      4.118330   -1.173790    5.829360
  N      5.782660    0.000330    4.402850
  C      7.246780    0.000050    4.422320
  C      7.651530    0.000350    5.909620
  O      6.830570    0.000740    6.825990
  C      7.808980    1.225930    3.703820
  C      9.249080    1.027010    3.329520
  O      9.974680    0.100930    3.655270
  O      9.726070    2.048190    2.592530
  H      7.584860   -0.936720    3.963120
  H      7.732220    2.118840    4.334610
  H      7.256090    1.408950    2.775160
  H      5.306530    0.199580    5.279900
  N      8.947220    0.000180    6.251380
  C      9.329460    0.000690    7.655990
  C     10.859390    0.000400    7.845630
  O     11.677310   -0.000180    6.931660
  H      8.929130    0.897210    8.143140
  C      8.393010   -1.268060    5.828890
  H      7.314780   -1.137970    5.685260
  H      8.841010   -1.589400    4.883950
  C      8.693200   -2.210790    6.984410
  H      9.686380   -2.658070    6.856980
  H      7.962510   -3.019990    7.067340
  C      8.696970   -1.283110    8.199840
  H      9.225970   -1.723110    9.049920
  H      7.662120   -1.085160    8.505730
  N     11.381550    0.000800    9.079710
  C     12.834670    0.000300    9.259830
  C     13.073660    0.000960   10.782580
  O     12.157030    0.001730   11.603260
  C     13.472580    1.225900    8.607090
  C     14.945050    1.026660    8.393240
  O     15.630320    0.100570    8.796940
  O     15.500260    2.047570    7.712810
  H     13.220970   -0.936640    8.840770
  H     13.327190    2.119000    9.225400
  H     13.025050    1.408740    7.623290
  H     10.812020    0.200360    9.899110
  N     14.323980    0.000690   11.264550
  C     14.549990    0.001530   12.704590
  C     16.073940    0.000960   12.907960
  O     16.880080   -0.000020   11.980160
  C     13.893030   -1.224320   13.348420
  C     13.851740   -1.157050   14.874610
  C     13.108000   -2.333950   15.469540
  O     12.657050   -3.273940   14.828700
  N     12.982740   -2.287060   16.826980
  H     14.130380    0.925550   13.118690
  H     15.006680   -0.477560   10.683410
  H     14.416120   -2.137460   13.036030
  H     12.865050   -1.322450   12.973200
  H     13.353830   -0.235770   15.196600
  H     14.866160   -1.166830   15.287490
  H     12.487610   -3.046680   17.276660
  H     13.319340   -1.522070   17.393120
  N     16.584550    0.001530   14.146860
  C     18.029420    0.000770   14.339670
  C     18.267790    0.001720   15.858540
  O     17.358790    0.002880   16.685810
  C     18.657930    1.226470   13.667770
  C     20.182770    1.159210   13.591390
  C     20.760400    2.335940   12.833880
  O     20.109340    3.275800   12.397560
  N     22.114600    2.289030   12.677420
  H     18.433760   -0.923340   13.910870
  H     16.019260    0.479940   14.842640
  H     18.357640    2.139730   14.197700
  H     18.259150    1.324340   12.648680
  H     20.493230    0.237810   13.086430
  H     20.618880    1.169240   14.596040
  H     22.552750    3.048540   12.171890
  H     22.688350    1.524130   13.001090
  N     19.518120    0.001280   16.340510
  C     19.745290    0.002400   17.787950
  C     21.274940    0.001520   17.973410
  O     22.061910    0.000140   17.025930
  C     19.118720   -1.228180   18.442950
  H     18.082880   -1.354720   18.105340
  H     19.670900   -2.134950   18.167030
  C     19.086120   -1.121520   19.949090
  O     19.463190   -0.145290   20.587990
  N     18.622830   -2.236380   20.582850
  H     18.236330   -3.030240   20.090230
  H     18.554620   -2.216760   21.592670
  H     19.333430    0.934600   18.192580
  H     20.319710   -0.203080   15.748120
  N     21.800390    0.002250   19.206100
  C     23.253990    0.001180   19.382340
  C     23.497040    0.002420   20.904450
  O     22.582610    0.003980   21.727570
  C     23.890710    1.226190   18.727340
  C     25.362510    1.026190   18.509650
  O     26.048440    0.099970   18.911950
  O     25.916360    2.046540   17.827280
  H     23.638750   -0.936130   18.962680
  H     23.747360    2.119640   19.345630
  H     23.440630    1.408790   17.744650
  H     21.233140    0.202440   20.026930
  O     24.784300    0.001720   21.314520

----------------------------
CARTESIAN COORDINATES (A.U.)
----------------------------
  NO LB      ZA    FRAG     MASS         X           Y           Z
   0 N     7.0000    0    14.007    0.000000    0.000000    0.000000
   1 C     6.0000    0    12.011    2.769545    0.000000    0.000000
   2 C     6.0000    0    12.011    3.566612    0.000000    2.799724
   3 O     8.0000    0    15.999    2.032816    0.000000    4.548571
   4 H     1.0000    0     1.008    3.380663   -1.777741   -0.876001
   5 C     6.0000    0    12.011    3.827149    2.295583   -1.421017
   6 H     1.0000    0     1.008    2.838917    2.565020   -3.217297
   7 S    16.0000    0    32.060    7.186269    2.022631   -2.173109
   8 H     1.0000    0     1.008    3.559224    4.027365   -0.315131
   9 H     1.0000    0     1.008    7.304340    4.069072   -3.667221
  10 H     1.0000    0     1.008   -0.872033    0.251409    1.695406
  11 H     1.0000    0     1.008   -0.642507    0.158378   -1.810377
  12 H     1.0000    0     1.008   -0.642507    1.789684   -0.315565
  13 N     7.0000    0    14.007    6.022463   -0.000000    3.416965
  14 C     6.0000    0    12.011    6.778296    0.000416    6.071841
  15 C     6.0000    0    12.011    9.690799    0.000302    6.110562
  16 O     8.0000    0    15.999   10.985205   -0.000076    4.179432
  17 C     6.0000    0    12.011    5.568796   -2.230274    7.521261
  18 C     6.0000    0    12.011    6.571636   -4.810071    6.672925
  19 C     6.0000    0    12.011    5.829163   -1.959136   10.388203
  20 H     1.0000    0     1.008    6.129213    1.792821    6.889072
  21 H     1.0000    0     1.008    7.286708   -0.691092    2.147126
  22 H     1.0000    0     1.008    3.532503   -2.213191    7.113250
  23 H     1.0000    0     1.008    6.330583   -5.076201    4.636122
  24 H     1.0000    0     1.008    5.544381   -6.334456    7.625121
  25 H     1.0000    0     1.008    8.579357   -5.035704    7.121584
  26 H     1.0000    0     1.008    4.679264   -3.384632   11.353626
  27 H     1.0000    0     1.008    5.179210   -0.099418   11.019352
  28 H     1.0000    0     1.008    7.782516   -2.218142   11.015894
  29 N     7.0000    0    14.007   10.927644    0.000624    8.320181
  30 C     6.0000    0    12.011   13.694430    0.000094    8.356974
  31 C     6.0000    0    12.011   14.459296    0.000661   11.167563
  32 O     8.0000    0    15.999   12.907907    0.001398   12.899252
  33 C     6.0000    0    12.011   14.756834    2.316672    6.999205
  34 C     6.0000    0    12.011   17.478228    1.940768    6.291881
  35 O     8.0000    0    15.999   18.849413    0.190730    6.907459
  36 O     8.0000    0    15.999   18.379609    3.870518    4.899172
  37 H     1.0000    0     1.008   14.333308   -1.770144    7.489211
  38 H     1.0000    0     1.008   14.611778    4.004027    8.191226
  39 H     1.0000    0     1.008   13.712023    2.662530    5.244292
  40 H     1.0000    0     1.008   10.027888    0.377152    9.977565
  41 N     7.0000    0    14.007   16.907795    0.000340   11.813396
  42 C     6.0000    0    12.011   17.630124    0.001304   14.467724
  43 C     6.0000    0    12.011   20.521273    0.000756   14.826092
  44 O     8.0000    0    15.999   22.066918   -0.000340   13.098939
  45 H     1.0000    0     1.008   16.873610    1.695481   15.388304
  46 C     6.0000    0    12.011   15.860490   -2.396286   11.015006
  47 H     1.0000    0     1.008   13.822931   -2.150452   10.743584
  48 H     1.0000    0     1.008   16.707088   -3.003531    9.229328
  49 C     6.0000    0    12.011   16.427767   -4.177788   13.198622
  50 H     1.0000    0     1.008   18.304605   -5.023024   12.957814
  51 H     1.0000    0     1.008   15.046963   -5.706954   13.355337
  52 C     6.0000    0    12.011   16.434891   -2.424726   15.495452
  53 H     1.0000    0     1.008   17.434557   -3.256206   17.101870
  54 H     1.0000    0     1.008   14.479308   -2.050655   16.073500
  55 N     7.0000    0    14.007   21.508012    0.001512   17.158165
  56 C     6.0000    0    12.011   24.254011    0.000567   17.498543
  57 C     6.0000    0    12.011   24.705637    0.001814   20.376123
  58 O     8.0000    0    15.999   22.973457    0.003269   21.926984
  59 C     6.0000    0    12.011   25.459487    2.316615   16.265043
  60 C     6.0000    0    12.011   28.242052    1.940106   15.860925
  61 O     8.0000    0    15.999   29.537024    0.190050   16.623807
  62 O     8.0000    0    15.999   29.291246    3.869347   14.575099
  63 H     1.0000    0     1.008   24.984013   -1.769993   16.706634
  64 H     1.0000    0     1.008   25.184739    4.004330   17.433479
  65 H     1.0000    0     1.008   24.613777    2.662133   14.405930
  66 H     1.0000    0     1.008   20.431757    0.378626   18.706607
  67 N     7.0000    0    14.007   27.068399    0.001304   21.286915
  68 C     6.0000    0    12.011   27.495496    0.002891   24.008196
  69 C     6.0000    0    12.011   30.375344    0.001814   24.392509
  70 O     8.0000    0    15.999   31.898728   -0.000038   22.639221
  71 C     6.0000    0    12.011   26.254022   -2.313630   25.224858
  72 C     6.0000    0    12.011   26.175995   -2.186508   28.108939
  73 C     6.0000    0    12.011   24.770530   -4.410526   29.233194
  74 O     8.0000    0    15.999   23.918358   -6.186850   28.022182
  75 N     7.0000    0    14.007   24.533823   -4.321917   31.798384
  76 H     1.0000    0     1.008   26.702548    1.749036   24.790731
  77 H     1.0000    0     1.008   28.358515   -0.902458   20.188719
  78 H     1.0000    0     1.008   27.242519   -4.039214   24.634527
  79 H     1.0000    0     1.008   24.311421   -2.499068   24.515795
  80 H     1.0000    0     1.008   25.235082   -0.445541   28.717412
  81 H     1.0000    0     1.008   28.092971   -2.204989   28.889169
  82 H     1.0000    0     1.008   23.598163   -5.757391   32.648156
  83 H     1.0000    0     1.008   25.169905   -2.876295   32.868233
  84 N     7.0000    0    14.007   31.340258    0.002891   26.733691
  85 C     6.0000    0    12.011   34.070666    0.001455   27.098049
  86 C     6.0000    0    12.011   34.521120    0.003250   29.968297
  87 O     8.0000    0    15.999   32.803359    0.005442   31.531611
  88 C     6.0000    0    12.011   35.258378    2.317692   25.828342
  89 C     6.0000    0    12.011   38.139908    2.190589   25.684005
  90 C     6.0000    0    12.011   39.231470    4.414287   24.252518
  91 O     8.0000    0    15.999   38.001145    6.190365   23.427993
  92 N     7.0000    0    14.007   41.790538    4.325640   23.956852
  93 H     1.0000    0     1.008   34.834758   -1.744860   26.287735
  94 H     1.0000    0     1.008   30.272014    0.906955   28.048525
  95 H     1.0000    0     1.008   34.690912    4.043504   26.829765
  96 H     1.0000    0     1.008   34.504793    2.502640   23.902541
  97 H     1.0000    0     1.008   38.726592    0.449396   24.729769
  98 H     1.0000    0     1.008   38.964036    2.209543   27.582518
  99 H     1.0000    0     1.008   42.618521    5.760906   23.001539
 100 H     1.0000    0     1.008   42.874768    2.880188   24.568500
 101 N     7.0000    0    14.007   36.883901    0.002419   30.879089
 102 C     6.0000    0    12.011   37.313191    0.004535   33.614354
 103 C     6.0000    0    12.011   40.203810    0.002872   33.964823
 104 O     8.0000    0    15.999   41.690968    0.000265   32.174345
 105 C     6.0000    0    12.011   36.129145   -2.320924   34.852125
 106 H     1.0000    0     1.008   34.171691   -2.560050   34.214134
 107 H     1.0000    0     1.008   37.172614   -4.034471   34.330711
 108 C     6.0000    0    12.011   36.067540   -2.119366   37.698317
 109 O     8.0000    0    15.999   36.780099   -0.274558   38.905663
 110 N     7.0000    0    14.007   35.192049   -4.226146   38.895950
 111 H     1.0000    0     1.008   34.461669   -5.726324   37.965033
 112 H     1.0000    0     1.008   35.063150   -4.189069   40.804233
 113 H     1.0000    0     1.008   36.534888    1.766138   34.378994
 114 H     1.0000    0     1.008   38.398687   -0.383766   29.759634
 115 N     7.0000    0    14.007   41.196767    0.004252   36.294269
 116 C     6.0000    0    12.011   43.943673    0.002230   36.627314
 117 C     6.0000    0    12.011   44.402971    0.004573   39.503685
 118 O     8.0000    0    15.999   42.674948    0.007521   41.059157
 119 C     6.0000    0    12.011   45.146899    2.317163   35.389544
 120 C     6.0000    0    12.011   47.928198    1.939218   34.978169
 121 O     8.0000    0    15.999   49.224418    0.188916   35.738406
 122 O     8.0000    0    15.999   48.974823    3.867400   33.688677
 123 H     1.0000    0     1.008   44.670764   -1.769029   35.834272
 124 H     1.0000    0     1.008   44.876007    4.005539   36.557943
 125 H     1.0000    0     1.008   44.296371    2.662227   33.532529
 126 H     1.0000    0     1.008   40.124820    0.382556   37.845413
 127 O     8.0000    0    15.999   46.835539    0.003250   40.278605

--------------------------------
INTERNAL COORDINATES (ANGSTROEM)
--------------------------------
 N      0   0   0     0.000000000000     0.00000000     0.00000000
 C      1   0   0     1.465580000000     0.00000000     0.00000000
 C      2   1   0     1.540421113397   105.89139260     0.00000000
 O      3   2   1     1.230948181281   122.85678302     0.00000000
 H      2   1   3     1.097479254155   107.13752009   116.23228084
 C      2   1   3     1.534387287943   111.39188675   238.24155912
 H      6   2   1     1.094235377513   110.76696714   314.22562030
 S      6   2   1     1.827296926775   113.51437031   194.31990438
 H      6   2   1     1.096539068570   110.66737207    72.77144150
 H      8   6   2     1.342299727259    96.30377943   171.14722920
 H      1   2   3     1.017624185100   116.96640565     8.43483813
 H      1   2   3     1.020003566758   109.47114980   175.00029763
 H      1   2   3     1.020004070433   109.47113980    99.99986914
 N      3   2   1     1.339998258693   119.99960641   180.00000085
 C     14   3   2     1.460725867266   119.99967688   179.99003575
 C     15  14   3     1.541366198085   106.65314114   180.00007288
 O     16  15  14     1.230237370998   123.07163900     0.00000000
 C     15  14   3     1.546400719898   111.32083900    55.03787017
 C     18  15  14     1.531939802244   113.04915051    67.39562142
 C     18  15  14     1.530105530086   112.51544946   192.83224807
 H     15  14   3     1.097566586591   107.06155436   295.32652538
 H     14   3   2     1.016298118221   118.50639911   335.82718388
 H     18  15  14     1.099015197029   107.58317972   309.70056959
 H     19  18  15     1.094450616245   111.27740733   304.37108276
 H     19  18  15     1.095496464303   110.45743631   185.07451263
 H     19  18  15     1.095172758061   111.69617429    65.42952749
 H     20  18  15     1.095581790648   110.35127747   170.23836541
 H     20  18  15     1.094685442536   111.00937006    51.04625990
 H     20  18  15     1.094344268546   111.97843735   289.65309503
 N     16  15  14     1.339999659478   119.99980441   179.99999328
 C     30  16  15     1.464249477958   120.00000385   179.98992402
 C     31  30  16     1.541390262880   105.98553491   179.99998036
 O     32  31  30     1.230329000959   122.91973279     0.00000000
 C     31  30  16     1.528101064851   111.19047485    59.38473956
 C     34  31  30     1.501185420393   111.33812118   198.32953021
 O     35  34  31     1.220750829981   127.17064321   352.12431201
 O     35  34  31     1.346655974108   112.07149240   174.51856447
 H     31  30  16     1.096677144514   107.62856658   296.34939714
 H     34  31  30     1.095936307365   110.92907283    77.28644324
 H     34  31  30     1.096172006621   110.28648533   317.13051475
 H     30  16  15     1.017652711832   121.56958874   346.72585834
 N     32  31  30     1.340004665141   119.99984154   179.99976006
 C     42  32  31     1.455691220623   119.99957465   179.98969780
 C     43  42  32     1.541638485054   112.28935270   180.00010580
 O     44  43  42     1.226513197524   124.75968486     0.00000000
 H     43  42  32     1.096050793440   109.46564737   299.85996231
 C     42  32  31     1.447093370104    63.59796847   281.91243930
 H     47  42  32     1.095505781774   108.12843113   354.13395349
 H     47  42  32     1.094017823986   110.65650463   113.37857498
 C     47  42  32     1.521210162798   104.22794179   235.32796493
 H     50  47  42     1.096678765957   110.07216606   272.50700393
 H     50  47  42     1.093430336601   112.60469380   151.69996087
 C     50  47  42     1.529010948358   103.19751041    29.56227894
 H     53  50  47     1.093653055772   112.02246678   199.72371075
 H     53  50  47     1.097117777224   109.19440430    79.90112125
 N     44  43  42     1.340001743282   119.99999793   180.00014082
 C     56  44  43     1.464240826777   120.00002693   179.98985361
 C     57  56  44     1.541390352312   105.98558688   179.99992008
 O     58  57  56     1.230336056612   122.91922697     0.00000000
 C     57  56  44     1.528101448105   111.19004101    59.38521482
 C     60  57  56     1.501198288368   111.33783045   198.32913228
 O     61  60  57     1.220742131246   127.17051270   352.12413510
 O     61  60  57     1.346662673835   112.07112830   174.51831006
 H     57  56  44     1.096674763638   107.62932309   296.35013655
 H     60  57  56     1.095934814759   110.92977599    77.28664678
 H     60  57  56     1.096164224238   110.28671951   317.12969295
 H     56  44  43     1.017646782779   121.56875977   346.72660719
 N     58  57  56     1.339998229924   120.00011032   179.99988513
 C     68  58  57     1.457668147179   120.00014587   179.99020320
 C     69  68  58     1.537460010634   106.52079266   180.00044355
 O     70  69  68     1.229095399064   123.38531826     0.00000000
 C     69  68  58     1.532586615171   110.37047282    58.61909642
 C     72  69  68     1.528229705607   113.32251330   191.14976221
 C     73  72  69     1.513996202934   111.80716929   175.85488997
 O     74  73  72     1.223769998080   124.91307051     4.06051453
 N     74  73  72     1.364013230618   114.17023376   183.17791525
 H     69  68  58     1.096067663285   108.32243859   297.42641618
 H     68  58  57     1.016132890965   114.91583586   328.77891379
 H     72  69  68     1.097741007615   109.97059144    68.24152342
 H     72  69  68     1.098709436430   109.21040200   312.40878346
 H     73  72  69     1.095604292890   110.04715955    55.38549530
 H     73  72  69     1.095268679001   110.55135991   295.52380176
 H     76  74  73     1.012120725852   117.46958169   179.57489536
 H     76  74  73     1.009467067170   123.61146587     2.35110039
 N     70  69  68     1.339998547387   120.00005739   180.00033316
 C     85  70  69     1.457678150553   119.99978473   179.99003426
 C     86  85  70     1.537461295871   106.52007168   179.99960169
 O     87  86  85     1.229088279376   123.38577527     0.00000000
 C     86  85  70     1.532584392489   110.37043874    58.61849018
 C     89  86  85     1.528232586225   113.32214218   191.14961553
 C     90  89  86     1.513991846048   111.80692279   175.85528684
 O     91  90  89     1.223761041053   124.91338741     4.05956991
 N     91  90  89     1.364015366372   114.16991308   183.17849897
 H     86  85  70     1.096056370676   108.32187854   297.42559544
 H     85  70  69     1.016139124628   114.91572488   328.77809510
 H     89  86  85     1.097744832190   109.97019176    68.24187836
 H     89  86  85     1.098703077906   109.21026196   312.40872587
 H     90  89  86     1.095603930807   110.04686869    55.38532840
 H     90  89  86     1.095268987738   110.55124620   295.52400248
 H     93  91  90     1.012122247310   117.46922451   179.57475346
 H     93  91  90     1.009466859981   123.61158164     2.35017710
 N     87  86  85     1.340007605725   119.99953767   179.99949590
 C    102  87  86     1.465158700244   119.99992348   179.99030595
 C    103 102  87     1.540852137131   105.83254679   180.00057749
 O    104 103 102     1.231682603474   122.79979550     0.00000000
 C    103 102  87     1.528378912868   111.05091275    59.70501097
 H    106 103 102     1.096794141715   110.37418558   311.14738375
 H    106 103 102     1.096935017082   110.57342692    70.10699927
 C    106 103 102     1.510263823045   112.29496965   191.66953406
 O    109 106 103     1.226132133092   124.69709883     2.84555485
 N    109 106 103     1.363525643800   114.40074720   184.43407339
 H    111 109 106     1.011073891464   123.05196880   353.50327803
 H    111 109 106     1.012311207535   118.07964987   181.56785038
 H    103 102  87     1.096517640761   107.87634683   296.79105518
 H    102  87  86     1.017465208152   121.71945504   346.40600657
 N    104 103 102     1.340008534115   119.99971581   179.99987102
 C    116 104 103     1.464245417442   119.99972846   179.98943836
 C    117 116 104     1.541393425508   105.98535141   180.00027388
 O    118 117 116     1.230329709021   122.91946430     0.00000000
 C    117 116 104     1.528099099699   111.19035652    59.38518940
 C    120 117 116     1.501194249956   111.33809140   198.32923628
 O    121 120 117     1.220749254884   127.17024436   352.12387585
 O    121 120 117     1.346659853824   112.07116726   174.51858463
 H    117 116 104     1.096678991000   107.62925350   296.34999652
 H    120 117 116     1.095940075506   110.92931865    77.28605869
 H    120 117 116     1.096172615285   110.28671337   317.13021553
 H    116 104 103     1.017649491475   121.56919619   346.72619232
 O    118 117 116     1.350998224462   116.74215645   180.00028995

---------------------------
INTERNAL COORDINATES (A.U.)
---------------------------
 N      0   0   0     0.000000000000     0.00000000     0.00000000
 C      1   0   0     2.769544827352     0.00000000     0.00000000
 C      2   1   0     2.910974035231   105.89139260     0.00000000
 O      3   2   1     2.326154947670   122.85678302     0.00000000
 H      2   1   3     2.073935228013   107.13752009   116.23228084
 C      2   1   3     2.899571757582   111.39188675   238.24155912
 H      6   2   1     2.067805189547   110.76696714   314.22562030
 S      6   2   1     3.453090756960   113.51437031   194.31990438
 H      6   2   1     2.072158534742   110.66737207    72.77144150
 H      8   6   2     2.536578874157    96.30377943   171.14722920
 H      1   2   3     1.923031017093   116.96640565     8.43483813
 H      1   2   3     1.927527396796   109.47114980   175.00029763
 H      1   2   3     1.927528348603   109.47113980    99.99986914
 N      3   2   1     2.532229728861   119.99960641   180.00000085
 C     14   3   2     2.760371845867   119.99967688   179.99003575
 C     15  14   3     2.912759986465   106.65314114   180.00007288
 O     16  15  14     2.324811710901   123.07163900     0.00000000
 C     15  14   3     2.922273853905   111.32083900    55.03787017
 C     18  15  14     2.894946679895   113.04915051    67.39562142
 C     18  15  14     2.891480407861   112.51544946   192.83224807
 H     15  14   3     2.074100262399   107.06155436   295.32652538
 H     14   3   2     1.920525113858   118.50639911   335.82718388
 H     18  15  14     2.076837739402   107.58317972   309.70056959
 H     19  18  15     2.068211931805   111.27740733   304.37108276
 H     19  18  15     2.070188298211   110.45743631   185.07451263
 H     19  18  15     2.069576582067   111.69617429    65.42952749
 H     20  18  15     2.070349541636   110.35127747   170.23836541
 H     20  18  15     2.068655689183   111.00937006    51.04625990
 H     20  18  15     2.068010963779   111.97843735   289.65309503
 N     16  15  14     2.532232375960   119.99980441   179.99999328
 C     30  16  15     2.767030505078   120.00000385   179.98992402
 C     31  30  16     2.912805462335   105.98553491   179.99998036
 O     32  31  30     2.324984866433   122.91973279     0.00000000
 C     31  30  16     2.887692517523   111.19047485    59.38473956
 C     34  31  30     2.836829320778   111.33812118   198.32953021
 O     35  34  31     2.306884746422   127.17064321   352.12431201
 O     35  34  31     2.544810987673   112.07149240   174.51856447
 H     31  30  16     2.072419460463   107.62856658   296.34939714
 H     34  31  30     2.071019481140   110.92907283    77.28644324
 H     34  31  30     2.071464888185   110.28648533   317.13051475
 H     30  16  15     1.923084924806   121.56958874   346.72585834
 N     32  31  30     2.532241835294   119.99984154   179.99976006
 C     42  32  31     2.750857742532   119.99957465   179.98969780
 C     43  42  32     2.913274534266   112.28935270   180.00010580
 O     44  43  42     2.317774042960   124.75968486     0.00000000
 H     43  42  32     2.071235828468   109.46564737   299.85996231
 C     42  32  31     2.734610159710    63.59796847   281.91243930
 H     47  42  32     2.070205905680   108.12843113   354.13395349
 H     47  42  32     2.067394072963   110.65650463   113.37857498
 C     47  42  32     2.874670599826   104.22794179   235.32796493
 H     50  47  42     2.072422524545   110.07216606   272.50700393
 H     50  47  42     2.066283882698   112.60469380   151.69996087
 C     50  47  42     2.889411948165   103.19751041    29.56227894
 H     53  50  47     2.066704760936   112.02246678   199.72371075
 H     53  50  47     2.073252135609   109.19440430    79.90112125
 N     44  43  42     2.532236313781   119.99999793   180.00014082
 C     56  44  43     2.767014156715   120.00002693   179.98985361
 C     57  56  44     2.912805631338   105.98558688   179.99992008
 O     58  57  56     2.324998199686   122.91922697     0.00000000
 C     57  56  44     2.887693241767   111.19004101    59.38521482
 C     60  57  56     2.836853637727   111.33783045   198.32913228
 O     61  60  57     2.306868308195   127.17051270   352.12413510
 O     61  60  57     2.544823648322   112.07112830   174.51831006
 H     57  56  44     2.072414961258   107.62932309   296.35013655
 H     60  57  56     2.071016660524   110.92977599    77.28664678
 H     60  57  56     2.071450181613   110.28671951   317.12969295
 H     56  44  43     1.923073720518   121.56875977   346.72660719
 N     58  57  56     2.532229674496   120.00011032   179.99988513
 C     68  58  57     2.754593592309   120.00014587   179.99020320
 C     69  68  58     2.905378361955   106.52079266   180.00044355
 O     70  69  68     2.322653696693   123.38531826     0.00000000
 C     69  68  58     2.896168979186   110.37047282    58.61909642
 C     72  69  68     2.887935613321   113.32251330   191.14976221
 C     73  72  69     2.861038191343   111.80716929   175.85488997
 O     74  73  72     2.312590147280   124.91307051     4.06051453
 N     74  73  72     2.577611448913   114.17023376   183.17791525
 H     69  68  58     2.071267707856   108.32243859   297.42641618
 H     68  58  57     1.920212879593   114.91583586   328.77891379
 H     72  69  68     2.074429870367   109.97059144    68.24152342
 H     72  69  68     2.076259935607   109.21040200   312.40878346
 H     73  72  69     2.070392064711   110.04715955    55.38549530
 H     73  72  69     2.069757846373   110.55135991   295.52380176
 H     76  74  73     1.912630986327   117.46958169   179.57489536
 H     76  74  73     1.907616298163   123.61146587     2.35110039
 N     70  69  68     2.532230274414   120.00005739   180.00033316
 C     85  70  69     2.754612495946   119.99978473   179.99003426
 C     86  85  70     2.905380790699   106.52007168   179.99960169
 O     87  86  85     2.322640242434   123.38577527     0.00000000
 C     86  85  70     2.896164778926   110.37043874    58.61849018
 C     89  86  85     2.887941056899   113.32214218   191.14961553
 C     90  89  86     2.861029958021   111.80692279   175.85528684
 O     91  90  89     2.312573220953   124.91338741     4.05956991
 N     91  90  89     2.577615484904   114.16991308   183.17849897
 H     86  85  70     2.071246367918   108.32187854   297.42559544
 H     85  70  69     1.920224659510   114.91572488   328.77809510
 H     89  86  85     2.074437097767   109.97019176    68.24187836
 H     89  86  85     2.076247919739   109.21026196   312.40872587
 H     90  89  86     2.070391380473   110.04686869    55.38532840
 H     90  89  86     2.069758429801   110.55124620   295.52400248
 H     93  91  90     1.912633861465   117.46922451   179.57475346
 H     93  91  90     1.907615906634   123.61158164     2.35017710
 N     87  86  85     2.532247392191   119.99953767   179.99949590
 C    102  87  86     2.768748686193   119.99992348   179.99030595
 C    103 102  87     2.911788552044   105.83254679   180.00057749
 O    104 103 102     2.327542804481   122.79979550     0.00000000
 C    103 102  87     2.888217574181   111.05091275    59.70501097
 H    106 103 102     2.072640553130   110.37418558   311.14738375
 H    106 103 102     2.072906768993   110.57342692    70.10699927
 C    106 103 102     2.853985015525   112.29496965   191.66953406
 O    109 106 103     2.317053935544   124.69709883     2.84555485
 N    109 106 103     2.576690043361   114.40074720   184.43407339
 H    111 109 106     1.910652756025   123.05196880   353.50327803
 H    111 109 106     1.912990944539   118.07964987   181.56785038
 H    103 102  87     2.072118042052   107.87634683   296.79105518
 H    102  87  86     1.922730594201   121.71945504   346.40600657
 N    104 103 102     2.532249146594   119.99971581   179.99987102
 C    116 104 103     2.767022831815   119.99972846   179.98943836
 C    117 116 104     2.912811438837   105.98535141   180.00027388
 O    118 117 116     2.324986204477   122.91946430     0.00000000
 C    117 116 104     2.887688803922   111.19035652    59.38518940
 C    120 117 116     2.836846006234   111.33809140   198.32923628
 O    121 120 117     2.306881769919   127.17024436   352.12387585
 O    121 120 117     2.544818319273   112.07116726   174.51858463
 H    117 116 104     2.072422949814   107.62925350   296.34999652
 H    120 117 116     2.071026601895   110.92931865    77.28605869
 H    120 117 116     2.071466038392   110.28671337   317.13021553
 H    116 104 103     1.923078839213   121.56919619   346.72619232
 O    118 117 116     2.553016651647   116.74215645   180.00028995

---------------------
BASIS SET INFORMATION
---------------------
There are 5 groups of distinct atoms

 Group   1 Type N   : 6s3p contracted to 2s1p pattern {33/3}
 Group   2 Type C   : 6s3p contracted to 2s1p pattern {33/3}
 Group   3 Type O   : 6s3p contracted to 2s1p pattern {33/3}
 Group   4 Type H   : 3s contracted to 1s pattern {3}
 Group   5 Type S   : 9s6p1d contracted to 3s2p1d pattern {333/33/1}

Atom   0N    basis set group =>   1
Atom   1C    basis set group =>   2
Atom   2C    basis set group =>   2
Atom   3O    basis set group =>   3
Atom   4H    basis set group =>   4
Atom   5C    basis set group =>   2
Atom   6H    basis set group =>   4
Atom   7S    basis set group =>   5
Atom   8H    basis set group =>   4
Atom   9H    basis set group =>   4
Atom  10H    basis set group =>   4
Atom  11H    basis set group =>   4
Atom  12H    basis set group =>   4
Atom  13N    basis set group =>   1
Atom  14C    basis set group =>   2
Atom  15C    basis set group =>   2
Atom  16O    basis set group =>   3
Atom  17C    basis set group =>   2
Atom  18C    basis set group =>   2
Atom  19C    basis set group =>   2
Atom  20H    basis set group =>   4
Atom  21H    basis set group =>   4
Atom  22H    basis set group =>   4
Atom  23H    basis set group =>   4
Atom  24H    basis set group =>   4
Atom  25H    basis set group =>   4
Atom  26H    basis set group =>   4
Atom  27H    basis set group =>   4
Atom  28H    basis set group =>   4
Atom  29N    basis set group =>   1
Atom  30C    basis set group =>   2
Atom  31C    basis set group =>   2
Atom  32O    basis set group =>   3
Atom  33C    basis set group =>   2
Atom  34C    basis set group =>   2
Atom  35O    basis set group =>   3
Atom  36O    basis set group =>   3
Atom  37H    basis set group =>   4
Atom  38H    basis set group =>   4
Atom  39H    basis set group =>   4
Atom  40H    basis set group =>   4
Atom  41N    basis set group =>   1
Atom  42C    basis set group =>   2
Atom  43C    basis set group =>   2
Atom  44O    basis set group =>   3
Atom  45H    basis set group =>   4
Atom  46C    basis set group =>   2
Atom  47H    basis set group =>   4
Atom  48H    basis set group =>   4
Atom  49C    basis set group =>   2
Atom  50H    basis set group =>   4
Atom  51H    basis set group =>   4
Atom  52C    basis set group =>   2
Atom  53H    basis set group =>   4
Atom  54H    basis set group =>   4
Atom  55N    basis set group =>   1
Atom  56C    basis set group =>   2
Atom  57C    basis set group =>   2
Atom  58O    basis set group =>   3
Atom  59C    basis set group =>   2
Atom  60C    basis set group =>   2
Atom  61O    basis set group =>   3
Atom  62O    basis set group =>   3
Atom  63H    basis set group =>   4
Atom  64H    basis set group =>   4
Atom  65H    basis set group =>   4
Atom  66H    basis set group =>   4
Atom  67N    basis set group =>   1
Atom  68C    basis set group =>   2
Atom  69C    basis set group =>   2
Atom  70O    basis set group =>   3
Atom  71C    basis set group =>   2
Atom  72C    basis set group =>   2
Atom  73C    basis set group =>   2
Atom  74O    basis set group =>   3
Atom  75N    basis set group =>   1
Atom  76H    basis set group =>   4
Atom  77H    basis set group =>   4
Atom  78H    basis set group =>   4
Atom  79H    basis set group =>   4
Atom  80H    basis set group =>   4
Atom  81H    basis set group =>   4
Atom  82H    basis set group =>   4
Atom  83H    basis set group =>   4
Atom  84N    basis set group =>   1
Atom  85C    basis set group =>   2
Atom  86C    basis set group =>   2
Atom  87O    basis set group =>   3
Atom  88C    basis set group =>   2
Atom  89C    basis set group =>   2
Atom  90C    basis set group =>   2
Atom  91O    basis set group =>   3
Atom  92N    basis set group =>   1
Atom  93H    basis set group =>   4
Atom  94H    basis set group =>   4
Atom  95H    basis set group =>   4
Atom  96H    basis set group =>   4
Atom  97H    basis set group =>   4
Atom  98H    basis set group =>   4
Atom  99H    basis set group =>   4
Atom 100H    basis set group =>   4
Atom 101N    basis set group =>   1
Atom 102C    basis set group =>   2
Atom 103C    basis set group =>   2
Atom 104O    basis set group =>   3
Atom 105C    basis set group =>   2
Atom 106H    basis set group =>   4
Atom 107H    basis set group =>   4
Atom 108C    basis set group =>   2
Atom 109O    basis set group =>   3
Atom 110N    basis set group =>   1
Atom 111H    basis set group =>   4
Atom 112H    basis set group =>   4
Atom 113H    basis set group =>   4
Atom 114H    basis set group =>   4
Atom 115N    basis set group =>   1
Atom 116C    basis set group =>   2
Atom 117C    basis set group =>   2
Atom 118O    basis set group =>   3
Atom 119C    basis set group =>   2
Atom 120C    basis set group =>   2
Atom 121O    basis set group =>   3
Atom 122O    basis set group =>   3
Atom 123H    basis set group =>   4
Atom 124H    basis set group =>   4
Atom 125H    basis set group =>   4
Atom 126H    basis set group =>   4
Atom 127O    basis set group =>   3


           ************************************************************
           *        Program running with 15 parallel MPI-processes    *
           *              working on a common directory               *
           ************************************************************
------------------------------------------------------------------------------
                           ORCA GTO INTEGRAL CALCULATION
------------------------------------------------------------------------------

                         BASIS SET STATISTICS AND STARTUP INFO

 # of primitive gaussian shells          ...  817
 # of primitive gaussian functions       ... 1253
 # of contracted shells                  ...  273
 # of contracted basis functions         ...  421
 Highest angular momentum                ...    2
 Maximum contraction depth               ...    3
 Integral package used                   ... LIBINT
 Integral threshhold            Thresh   ...  1.000e-10
 Primitive cut-off              TCut     ...  1.000e-11


------------------------------ INTEGRAL EVALUATION ----------------------------


 * One electron integrals 
 Pre-screening matrix                    ... done
 Shell pair data                         ... done (   0.009 sec)



           ************************************************************
           *        Program running with 15 parallel MPI-processes    *
           *              working on a common directory               *
           ************************************************************
-------------------------------------------------------------------------------
                                 ORCA SCF
-------------------------------------------------------------------------------

------------
SCF SETTINGS
------------
Hamiltonian:
 Ab initio Hamiltonian  Method          .... Hartree-Fock(GTOs)


General Settings:
 Integral files         IntName         .... CVDPDQQND
 Hartree-Fock type      HFTyp           .... UHF
 Total Charge           Charge          ....    0
 Multiplicity           Mult            ....    2
 Number of Electrons    NEL             ....  543
 Basis Dimension        Dim             ....  421
 Nuclear Repulsion      ENuc            ....  10809.3227544350 Eh

Convergence Acceleration:
 DIIS                   CNVDIIS         .... off
 Newton-Raphson         CNVNR           .... off
 SOSCF                  CNVSOSCF        .... off
 Level Shifting         CNVShift        .... off
 Zerner damping         CNVZerner       .... off
 Static damping         CNVDamp         .... off
 Fernandez-Rico         CNVRico         .... off

SCF Procedure:
 Maximum # iterations   MaxIter         .... 10000
 SCF integral mode      SCFMode         .... Direct
   Integral package                     .... LIBINT
 Reset frequency        DirectResetFreq ....    20
 Integral Threshold     Thresh          ....  1.000e-10 Eh
 Primitive CutOff       TCut            ....  1.000e-11 Eh

Convergence Tolerance:
 Convergence Check Mode ConvCheckMode   .... All-Criteria
 Convergence forced     ConvForced      .... 0
 Energy Change          TolE            ....  1.000e-06 Eh
 Max Density Change     TolMaxP         ....  1.000e-05
 RMS Density Change     TolRMSP         ....  1.000e-06


Diagonalization of the overlap matrix:
Smallest eigenvalue                        ... 1.888e-01
Time for diagonalization                   ...    0.036 sec
Threshold for overlap eigenvalues          ... 1.000e-08
Number of eigenvalues below threshold      ... 0
Time for construction of square roots      ...    0.065 sec
Total time needed                          ...    0.101 sec

--------------------------------
INITIAL GUESS: MINIMAL BASIS EHT
--------------------------------
The minimal basis has 416 functions
EHT matrix was diagonalized
Basis set overlap was calculated now projecting the orbitals
Using GuessMode=FMatrix for the initial guess
C*T matrix was formed
Effective Fockian was calculated
Effective Fockian was diagonalized
Initial density was built
                      ------------------
                      INITIAL GUESS DONE
                      ------------------

--------------------
CPCM SOLVATION MODEL
--------------------
CPCM parameters:
  Epsilon                                         ...      78.3550
  Refrac                                          ...       1.3300
  Rsolv                                           ...       1.3000
  Surface type                                    ...    GEPOL SES
  Epsilon function type                           ...         CPCM
Solvent:                                     ... WATER
SMD-CDS solvent descriptors:
  Soln                                       ...    1.3328
  Soln25                                     ...    1.3323
  Sola                                       ...    0.0000
  Solb                                       ...    0.0000
  Solg                                       ...    0.0000
  Solc                                       ...    0.0000
  Solh                                       ...    0.0000
Radii:
 Radius for N  used is    3.5716 Bohr (=   1.8900 Ang.)
 Radius for C  used is    3.4960 Bohr (=   1.8500 Ang.)
 Radius for O  used is    2.8724 Bohr (=   1.5200 Ang.)
 Radius for H  used is    2.2677 Bohr (=   1.2000 Ang.)
 Radius for S  used is    4.7054 Bohr (=   2.4900 Ang.)
Calculating surface                               ...        done! (  0.7s)
GEPOL surface points                              ...         5897
GEPOL Volume                                      ...    6696.6596
GEPOL Surface-area                                ...    3361.8816
Calculating surface distance matrix               ...        done! (  0.6s)
Performing Cholesky decomposition & store         ...        done! (  3.2s)
Overall time for CPCM initialization              ...                 4.5s
--------------
SCF ITERATIONS
--------------
ITER       Energy         Delta-E        Max-DP      RMS-DP      [F,P]   Gradient Norm
               ***  Starting incremental Fock matrix formation  ***
                             ****Resetting KDIIS****
                             ****Turning on KDIIS(Cayley)****
  0  -3948.2886909007   0.000000000000 0.03691232  0.00080901  0.5589734   0.202741591
  1  -3949.7945339839  -1.505843083274 0.06773024  0.00121298  0.5045356   0.181607903
  2  -3951.6403281633  -1.845794179381 0.21037866  0.00205856  0.4055848   0.146661628
  3  -3953.8144809008  -2.174152737531 0.18860420  0.00286378  0.2470632   0.089136300
  4  -3955.0533048209  -1.238823920016 0.09158295  0.00090083  0.0494461   0.014089697
  5  -3955.1765937167  -0.123288895798 0.08520561  0.00093455  0.0444741   0.008911035
  6  -3955.2824014872  -0.105807770542 0.10891279  0.00075504  0.0267679   0.007379824
  7  -3955.3362306797  -0.053829192488 0.03402126  0.00017058  0.0387295   0.006615239
  8  -3955.3242703616   0.011960318086 0.02844574  0.00028072  0.0315447   0.006316823
  9  -3955.3404257613  -0.016155399662 0.04879738  0.00057092  0.0314893   0.006184656
 10  -3955.3627330619  -0.022307300670 0.03707503  0.00028569  0.0343014   0.005847823
 11  -3955.3818419483  -0.019108886396 0.04021094  0.00043629  0.0395779   0.005408437
 12  -3955.3913048182  -0.009462869837 0.11065196  0.00069884  0.0408392   0.005868306
 13  -3955.4643345927  -0.073029774509 0.02510034  0.00022654  0.0625668   0.007535013
 14  -3955.4799933741  -0.015658781456 0.14677926  0.00108275  0.0607090   0.007496769
 15  -3955.5196371288  -0.039643754644 0.13776548  0.00108340  0.0497584   0.006168677
 16  -3955.5672847163  -0.047647587517 0.14033889  0.00091485  0.0513986   0.004978038
 17  -3955.5691385670  -0.001853850738 0.05146924  0.00037313  0.0475154   0.004799755
 18  -3955.6025483819  -0.033409814828 0.03667530  0.00022089  0.0302750   0.004017407
 19  -3955.6055375744  -0.002989192548 0.01397824  0.00008822  0.0232927   0.003404572
               *** Restarting incremental Fock matrix formation ***
                             ****Resetting KDIIS****
 20  -3955.6036872822   0.001850292173 0.00648522  0.00003894  0.0203933   0.003274066
 21  -3955.6062368504  -0.002549568162 0.00418641  0.00003446  0.0217134   0.003285365
 22  -3955.6080752062  -0.001838355814 0.03213021  0.00015997  0.0215800   0.003202028
 23  -3955.6148072178  -0.006732011605 0.05314545  0.00027454  0.0199933   0.002943569
 24  -3955.6271466258  -0.012339407969 0.01380768  0.00011769  0.0179624   0.002787145
 25  -3955.6247180318   0.002428594030 0.10837151  0.00063049  0.0199102   0.003051562
 26  -3955.6294025459  -0.004684514185 0.04472409  0.00021779  0.0103038   0.002127705
 27  -3955.6314390933  -0.002036547382 0.03318984  0.00024935  0.0120569   0.001761722
 28  -3955.6372724924  -0.005833399069 0.02343623  0.00015040  0.0057361   0.001205832
 29  -3955.6402672725  -0.002994780067 0.02091249  0.00016366  0.0083315   0.001077549
 30  -3955.6432893522  -0.003022079782 0.00804937  0.00004227  0.0070919   0.001010055
 31  -3955.6432369076   0.000052444660 0.00567123  0.00003964  0.0079333   0.001016054
 32  -3955.6427359923   0.000500915250 0.03102239  0.00015015  0.0078821   0.001041591
 33  -3955.6436942375  -0.000958245203 0.01450057  0.00012638  0.0069361   0.000953520
 34  -3955.6456811405  -0.001986902995 0.00193742  0.00001882  0.0079838   0.000874650
 35  -3955.6457589753  -0.000077834794 0.01501579  0.00011821  0.0078065   0.000862799
 36  -3955.6456856963   0.000073279055 0.00058326  0.00000306  0.0086236   0.000922000
 37  -3955.6456759987   0.000009697621 0.02139284  0.00009275  0.0085801   0.000919886
 38  -3955.6459585598  -0.000282561161 0.01415790  0.00010749  0.0086090   0.000883552
 39  -3955.6476470729  -0.001688513109 0.01840296  0.00016893  0.0090411   0.001040788
               *** Restarting incremental Fock matrix formation ***
                             ****Resetting KDIIS****
 40  -3955.6451284140   0.002518658899 0.00091751  0.00000787  0.0059284   0.000710952
 41  -3955.6452424526  -0.000114038614 0.00102431  0.00000577  0.0060321   0.000712148
 42  -3955.6452766075  -0.000034154831 0.00728012  0.00004875  0.0060149   0.000697126
 43  -3955.6458020149  -0.000525407427 0.04272565  0.00030219  0.0048834   0.000621231
 44  -3955.6480163090  -0.002214294085 0.00806872  0.00006909  0.0026967   0.000363590
 45  -3955.6479750047   0.000041304243 0.00432778  0.00003783  0.0020039   0.000360503
 46  -3955.6478676914   0.000107313340 0.00607275  0.00003632  0.0016358   0.000310270
 47  -3955.6479210110  -0.000053319628 0.00558739  0.00004549  0.0014634   0.000269405
 48  -3955.6481543290  -0.000233318022 0.00969959  0.00008312  0.0013898   0.000243667
 49  -3955.6485334195  -0.000379090413 0.00565369  0.00005034  0.0013269   0.000217270
 50  -3955.6487563755  -0.000222956087 0.00631671  0.00005102  0.0013809   0.000209578
 51  -3955.6489850694  -0.000228693823 0.00030420  0.00000236  0.0014694   0.000205413
 52  -3955.6489954378  -0.000010368423 0.00202552  0.00001498  0.0014742   0.000205143
 53  -3955.6489803221   0.000015115662 0.00057253  0.00000534  0.0015210   0.000208358
 54  -3955.6489783311   0.000001991052 0.00410614  0.00003330  0.0015268   0.000210499
 55  -3955.6488622991   0.000116032028 0.00181444  0.00001323  0.0014629   0.000209661
 56  -3955.6489213518  -0.000059052762 0.00518309  0.00003376  0.0014989   0.000209441
 57  -3955.6487811918   0.000140160031 0.00218284  0.00001478  0.0014221   0.000208178
 58  -3955.6488427184  -0.000061526587 0.00170188  0.00001352  0.0014411   0.000205881
 59  -3955.6489005344  -0.000057816068 0.00659039  0.00004852  0.0014921   0.000206833
               *** Restarting incremental Fock matrix formation ***
                             ****Resetting KDIIS****
 60  -3955.6487067840   0.000193750451 0.00026491  0.00000208  0.0013340   0.000205509
 61  -3955.6487160402  -0.000009256181 0.00028001  0.00000232  0.0013421   0.000205243
 62  -3955.6487263488  -0.000010308651 0.00075417  0.00000511  0.0013486   0.000204537
 63  -3955.6487478155  -0.000021466712 0.00465288  0.00003706  0.0013423   0.000202810
 64  -3955.6489093910  -0.000161575493 0.00192267  0.00001251  0.0014079   0.000200475
 65  -3955.6489548132  -0.000045422127 0.00252757  0.00002124  0.0013993   0.000195784
 66  -3955.6488631783   0.000091634808 0.00276179  0.00002073  0.0013301   0.000196881
 67  -3955.6487748648   0.000088313569 0.00093489  0.00000554  0.0012828   0.000198347
 68  -3955.6487676941   0.000007170654 0.01348826  0.00007985  0.0012850   0.000196630
 69  -3955.6484803494   0.000287344769 0.00175048  0.00000920  0.0012458   0.000200534
 70  -3955.6484571209   0.000023228451 0.00371015  0.00001904  0.0012862   0.000202459
 71  -3955.6485124158  -0.000055294873 0.00564824  0.00004545  0.0012348   0.000201596
 72  -3955.6487049919  -0.000192576100 0.01718617  0.00011791  0.0011707   0.000192149
 73  -3955.6491158763  -0.000410884461 0.01140327  0.00008405  0.0012801   0.000180359
 74  -3955.6494153206  -0.000299444303 0.00551265  0.00004059  0.0014141   0.000182529
 75  -3955.6492672140   0.000148106637 0.01410877  0.00008092  0.0012688   0.000184487
 76  -3955.6490307042   0.000236509794 0.00573784  0.00003791  0.0010980   0.000181843
 77  -3955.6489281132   0.000102590985 0.00310487  0.00001453  0.0010607   0.000188576
                          ***Energy convergence achieved***
 78  -3955.6489284821  -0.000000368858 0.00724815  0.00004526  0.0011366   0.000175151
 79  -3955.6490383537  -0.000109871635 0.01184971  0.00007803  0.0011191   0.000169156
               *** Restarting incremental Fock matrix formation ***
                             ****Resetting KDIIS****
 80  -3955.6489641867   0.000074166991 0.00029174  0.00000180  0.0010153   0.000175676
 81  -3955.6489708451  -0.000006658355 0.00060096  0.00000368  0.0010112   0.000174197
 82  -3955.6489843626  -0.000013517505 0.00031427  0.00000226  0.0010024   0.000171899
 83  -3955.6489910189  -0.000006656280 0.00962785  0.00006842  0.0010103   0.000169373
 84  -3955.6492180186  -0.000226999774 0.01032215  0.00006750  0.0010056   0.000151061
 85  -3955.6494320647  -0.000214046035 0.00333354  0.00001815  0.0010089   0.000151693
 86  -3955.6493756739   0.000056390765 0.00360456  0.00002553  0.0010883   0.000152977
 87  -3955.6494530777  -0.000077403780 0.00395863  0.00002549  0.0011310   0.000149442
 88  -3955.6493789343   0.000074143438 0.00077689  0.00000584  0.0011339   0.000149933
 89  -3955.6493925737  -0.000013639468 0.00422608  0.00002926  0.0011527   0.000147836
 90  -3955.6494846130  -0.000092039258 0.00342165  0.00002308  0.0011878   0.000147658
 91  -3955.6494123553   0.000072257719 0.00060493  0.00000290  0.0011575   0.000149785
                          ***Energy convergence achieved***
 92  -3955.6494117189   0.000000636385 0.00501006  0.00003621  0.0011980   0.000151609
 93  -3955.6492967252   0.000114993687 0.00112773  0.00000746  0.0011334   0.000150645
 94  -3955.6493200699  -0.000023344693 0.00393957  0.00002158  0.0011380   0.000150114
 95  -3955.6493737759  -0.000053706027 0.01569022  0.00010706  0.0010766   0.000148340
 96  -3955.6497159335  -0.000342157549 0.01904271  0.00013123  0.0013416   0.000154069
 97  -3955.6492976287   0.000418304765 0.00181522  0.00000962  0.0010491   0.000154137
 98  -3955.6492823349   0.000015293799 0.01591584  0.00010712  0.0011468   0.000155960
 99  -3955.6489275651   0.000354769811 0.03290971  0.00021259  0.0010770   0.000176922
               *** Restarting incremental Fock matrix formation ***
                             ****Resetting KDIIS****
100  -3955.6496145008  -0.000686935757 0.00025453  0.00000178  0.0012128   0.000159639
101  -3955.6496204857  -0.000005984909 0.00018756  0.00000129  0.0012180   0.000159437
102  -3955.6496180453   0.000002440465 0.00073344  0.00000363  0.0012150   0.000156374
103  -3955.6496131276   0.000004917657 0.00435813  0.00002720  0.0012029   0.000152496
104  -3955.6495291646   0.000083963036 0.00198990  0.00001146  0.0011876   0.000148796
105  -3955.6495076408   0.000021523803 0.01003714  0.00006684  0.0012497   0.000153358
106  -3955.6492972107   0.000210430113 0.00334690  0.00002316  0.0010860   0.000156414
107  -3955.6493707409  -0.000073530241 0.00662941  0.00003983  0.0011394   0.000151359
108  -3955.6492525458   0.000118195070 0.00037379  0.00000249  0.0011200   0.000154802
109  -3955.6492468712   0.000005674684 0.00864873  0.00005319  0.0011124   0.000155422
110  -3955.6490809926   0.000165878509 0.02615944  0.00016005  0.0010661   0.000158955
111  -3955.6495738649  -0.000492872220 0.02282012  0.00013703  0.0013313   0.000160785
112  -3955.6491610351   0.000412829765 0.01224423  0.00006566  0.0010542   0.000163572
113  -3955.6489682574   0.000192777715 0.01494228  0.00007667  0.0011025   0.000179870
114  -3955.6491729921  -0.000204734705 0.03168149  0.00017246  0.0010278   0.000162695
115  -3955.6496589130  -0.000485920894 0.01367978  0.00008155  0.0013045   0.000235940
116  -3955.6493868576   0.000272055435 0.03923577  0.00022962  0.0010441   0.000183027
117  -3955.6502521638  -0.000865306228 0.02018266  0.00011943  0.0024031   0.000358994
118  -3955.6497263955   0.000525768324 0.04111928  0.00022262  0.0015543   0.000283608
119  -3955.6491090658   0.000617329630 0.00752232  0.00003789  0.0010094   0.000196031
               *** Restarting incremental Fock matrix formation ***
                             ****Resetting KDIIS****
120  -3955.6490132202   0.000095845664 0.00034666  0.00000214  0.0010237   0.000209751
121  -3955.6490220549  -0.000008834736 0.00051589  0.00000290  0.0010072   0.000203515
122  -3955.6490336360  -0.000011581124 0.00117595  0.00000647  0.0009965   0.000192251
123  -3955.6490445522  -0.000010916152 0.00412425  0.00003056  0.0010047   0.000173151
124  -3955.6491393567  -0.000094804516 0.01869535  0.00012614  0.0010744   0.000150050
125  -3955.6495288360  -0.000389479296 0.01486089  0.00009757  0.0011128   0.000142628
126  -3955.6498224872  -0.000293651239 0.00479071  0.00003296  0.0012783   0.000158987
127  -3955.6497215411   0.000100946080 0.00580948  0.00003512  0.0011299   0.000166245
128  -3955.6498007091  -0.000079167959 0.00488047  0.00002702  0.0012476   0.000205092
129  -3955.6498122229  -0.000011513755 0.02828106  0.00017662  0.0014750   0.000211030
130  -3955.6492791557   0.000533067118 0.00792810  0.00005452  0.0011123   0.000154772
131  -3955.6494434112  -0.000164255499 0.01336971  0.00008734  0.0012065   0.000149405
132  -3955.6497002928  -0.000256881552 0.00070698  0.00000465  0.0012954   0.000144259
133  -3955.6496921728   0.000008119993 0.01076012  0.00007186  0.0012775   0.000148536
134  -3955.6499175981  -0.000225425256 0.04349285  0.00028545  0.0014855   0.000164640
135  -3955.6490345170   0.000883081009 0.01714297  0.00010931  0.0011836   0.000174394
136  -3955.6493812692  -0.000346752127 0.00090990  0.00000566  0.0012021   0.000152381
137  -3955.6493906580  -0.000009388808 0.00468221  0.00003071  0.0011786   0.000147570
138  -3955.6494813083  -0.000090650358 0.00771574  0.00004754  0.0011858   0.000146198
139  -3955.6496179770  -0.000136668705 0.02856680  0.00018849  0.0012105   0.000160424
               *** Restarting incremental Fock matrix formation ***
                             ****Resetting KDIIS****
140  -3955.6502565639  -0.000638586817 0.00053468  0.00000291  0.0018921   0.000257683
141  -3955.6502713772  -0.000014813349 0.00068412  0.00000306  0.0019179   0.000253880
142  -3955.6502861696  -0.000014792363 0.00182619  0.00000895  0.0019602   0.000243876
143  -3955.6502982828  -0.000012113230 0.00251659  0.00001279  0.0020705   0.000224084
144  -3955.6503196307  -0.000021347908 0.02245857  0.00013635  0.0022217   0.000217175
145  -3955.6498526873   0.000466943459 0.01119635  0.00006018  0.0014613   0.000177419
146  -3955.6497361481   0.000116539140 0.00486251  0.00002135  0.0014507   0.000182750
147  -3955.6496707832   0.000065364906 0.01893643  0.00010253  0.0013299   0.000162427
148  -3955.6494119610   0.000258822205 0.01346942  0.00006869  0.0012065   0.000182544
149  -3955.6495773811  -0.000165420110 0.16675453  0.00079208  0.0011348   0.000178995
150  -3955.6567573376  -0.007179956464 0.11150617  0.00046853  0.0102305   0.001612056
151  -3955.6508283257   0.005929011876 0.02377978  0.00012441  0.0027538   0.000473623
152  -3955.6502253106   0.000603015120 0.00313607  0.00002095  0.0018123   0.000297974
153  -3955.6502602494  -0.000034938850 0.02827906  0.00016093  0.0019205   0.000299182
154  -3955.6497492002   0.000511049225 0.01987329  0.00010321  0.0011466   0.000185284
155  -3955.6495141272   0.000235073025 0.02201420  0.00010605  0.0010217   0.000170118
156  -3955.6492546684   0.000259458828 0.03578386  0.00017416  0.0012555   0.000199973
157  -3955.6496855564  -0.000430888060 0.00127969  0.00000677  0.0012034   0.000211171
158  -3955.6496988390  -0.000013282581 0.02666441  0.00014603  0.0011875   0.000212492
159  -3955.6501017183  -0.000402879307 0.01289060  0.00007049  0.0017522   0.000306045
               *** Restarting incremental Fock matrix formation ***
                             ****Resetting KDIIS****
160  -3955.6498903554   0.000211362850 0.00035591  0.00000243  0.0011621   0.000228516
161  -3955.6499005215  -0.000010166099 0.00041657  0.00000246  0.0012020   0.000223955
                          ***Energy convergence achieved***
162  -3955.6499007616  -0.000000240035 0.00159190  0.00000781  0.0012114   0.000203855
163  -3955.6499045445  -0.000003782929 0.00310502  0.00001529  0.0013166   0.000173931
164  -3955.6499371882  -0.000032643733 0.01437064  0.00008824  0.0014955   0.000153002
165  -3955.6496796226   0.000257565632 0.01591410  0.00008645  0.0012369   0.000153225
166  -3955.6494578336   0.000221789037 0.01111809  0.00005675  0.0013009   0.000161288
167  -3955.6495862495  -0.000128415901 0.00768538  0.00004003  0.0011906   0.000168540
168  -3955.6494868374   0.000099412121 0.00478704  0.00002603  0.0012207   0.000166887
169  -3955.6494358003   0.000051037008 0.01659309  0.00009648  0.0011268   0.000156243
170  -3955.6496891686  -0.000253368214 0.00241202  0.00001539  0.0012473   0.000133298
171  -3955.6497317292  -0.000042560675 0.00086297  0.00000464  0.0012367   0.000134596
172  -3955.6497440290  -0.000012299743 0.00337577  0.00002316  0.0012677   0.000135083
173  -3955.6496795497   0.000064479249 0.00054374  0.00000283  0.0011989   0.000134671
174  -3955.6496720186   0.000007531094 0.00366620  0.00002106  0.0011891   0.000134253
175  -3955.6496128768   0.000059141853 0.01664427  0.00010252  0.0011618   0.000133814
176  -3955.6493225060   0.000290370738 0.02978905  0.00018549  0.0011580   0.000142262
177  -3955.6498479361  -0.000525430084 0.01598902  0.00009884  0.0013885   0.000149692
178  -3955.6495717275   0.000276208578 0.01733256  0.00009777  0.0011587   0.000136415
179  -3955.6498218688  -0.000250141228 0.01788130  0.00009221  0.0014067   0.000235125
               *** Restarting incremental Fock matrix formation ***
                             ****Resetting KDIIS****
180  -3955.6500920356  -0.000270166777 0.00045324  0.00000255  0.0013745   0.000230625
181  -3955.6501035648  -0.000011529251 0.00063537  0.00000297  0.0013809   0.000225201
182  -3955.6501163000  -0.000012735241 0.00175800  0.00000849  0.0014032   0.000212081
183  -3955.6501225952  -0.000006295162 0.00408472  0.00002149  0.0015106   0.000185508
184  -3955.6501818138  -0.000059218560 0.01272725  0.00007537  0.0017205   0.000168186
185  -3955.6499578995   0.000223914305 0.00263997  0.00001288  0.0015193   0.000158825
186  -3955.6499973356  -0.000039436185 0.00815379  0.00004957  0.0016128   0.000157993
187  -3955.6498556417   0.000141693946 0.00825095  0.00004755  0.0015197   0.000152735
188  -3955.6497323838   0.000123257876 0.01606803  0.00008364  0.0014217   0.000151262
189  -3955.6495335651   0.000198818744 0.10718866  0.00061027  0.0014624   0.000156256
190  -3955.6525772680  -0.003043702935 0.02925036  0.00013004  0.0055214   0.000852666
191  -3955.6513997763   0.001177491682 0.04088739  0.00018200  0.0038122   0.000567277
192  -3955.6531137033  -0.001713926953 0.06488971  0.00025531  0.0061759   0.000989214
193  -3955.6571785157  -0.004064812414 0.17198677  0.00080620  0.0104433   0.001765337
194  -3955.6497890679   0.007389447761 0.01199228  0.00006750  0.0013568   0.000181471
195  -3955.6499639921  -0.000174924115 0.08247732  0.00042092  0.0015139   0.000192205
196  -3955.6486476425   0.001316349537 0.01838458  0.00009712  0.0020909   0.000396976
197  -3955.6490767083  -0.000429065756 0.07460164  0.00038677  0.0019430   0.000254122
198  -3955.6501324209  -0.001055712642 0.15463439  0.00067616  0.0017538   0.000242055
199  -3955.6573061046  -0.007173683726 0.06186606  0.00023690  0.0104980   0.001827081
               *** Restarting incremental Fock matrix formation ***
                             ****Resetting KDIIS****
200  -3955.6533934776   0.003912627047 0.00203023  0.00001187  0.0064374   0.001085106
201  -3955.6536274486  -0.000233970985 0.00221373  0.00001271  0.0067344   0.001075630
202  -3955.6535852462   0.000042202368 0.00602833  0.00004216  0.0068851   0.000964438
203  -3955.6533732952   0.000211951057 0.01406210  0.00007148  0.0069688   0.000790053
204  -3955.6528618074   0.000511487723 0.04047924  0.00020230  0.0063972   0.000640644
205  -3955.6512707676   0.001591039817 0.00483081  0.00002535  0.0040141   0.000452534
206  -3955.6514208987  -0.000150131060 0.03701689  0.00015892  0.0041795   0.000471399
207  -3955.6504271729   0.000993725736 0.02882146  0.00014312  0.0028240   0.000317513
208  -3955.6499758594   0.000451313578 0.01029484  0.00005636  0.0015349   0.000238931
209  -3955.6499266868   0.000049172514 0.00633410  0.00003263  0.0018193   0.000232264
210  -3955.6498249358   0.000101751063 0.00248936  0.00001495  0.0012671   0.000232502
211  -3955.6498470083  -0.000022072481 0.01538381  0.00007509  0.0012561   0.000180562
212  -3955.6497144832   0.000132525074 0.00411477  0.00002091  0.0011765   0.000158564
213  -3955.6496800409   0.000034442325 0.01651816  0.00008824  0.0011855   0.000161176
214  -3955.6498377657  -0.000157724819 0.00528101  0.00002658  0.0013922   0.000141042
215  -3955.6498994631  -0.000061697368 0.00086827  0.00000555  0.0013912   0.000122388
216  -3955.6498962311   0.000003231970 0.01091517  0.00006479  0.0013643   0.000118936
217  -3955.6498170672   0.000079163873 0.00112384  0.00000719  0.0010495   0.000126440
218  -3955.6498113644   0.000005702764 0.00341533  0.00002110  0.0010655   0.000108278
219  -3955.6497849167   0.000026447706 0.00293701  0.00001567  0.0010234   0.000103770
               *** Restarting incremental Fock matrix formation ***
                             ****Resetting KDIIS****
220  -3955.6498163997  -0.000031482934 0.00022279  0.00000121  0.0010599   0.000102584
221  -3955.6498192550  -0.000002855331 0.00101056  0.00000563  0.0010611   0.000102500
222  -3955.6498317949  -0.000012539843 0.00148287  0.00000800  0.0010742   0.000102676
223  -3955.6498494886  -0.000017693737 0.00485205  0.00002568  0.0010880   0.000102664
224  -3955.6499051220  -0.000055633415 0.00221713  0.00001258  0.0011067   0.000102726
225  -3955.6499263490  -0.000021227010 0.00081045  0.00000319  0.0011079   0.000102312
226  -3955.6499289709  -0.000002621881 0.00226273  0.00001223  0.0011210   0.000102640
227  -3955.6499549634  -0.000025992481 0.04303514  0.00021963  0.0011366   0.000102850
228  -3955.6494170830   0.000537880358 0.00975884  0.00004573  0.0013522   0.000187757
229  -3955.6495404659  -0.000123382894 0.04690607  0.00024370  0.0010846   0.000220054
230  -3955.6500973850  -0.000556919108 0.00875141  0.00004473  0.0010351   0.000176637
[...]
4729  -3955.6504272193  -0.000461908147 0.08338344  0.00041766  0.0015629   0.000185198
4730  -3955.6493851589   0.001042060442 0.01873723  0.00008834  0.0015235   0.000251650
4731  -3955.6496502444  -0.000265085466 0.01604070  0.00007987  0.0012423   0.000183754
4732  -3955.6498415836  -0.000191339208 0.03966622  0.00019020  0.0012556   0.000135652
4733  -3955.6493059705   0.000535613091 0.03393354  0.00016511  0.0016636   0.000312944
4734  -3955.6497952370  -0.000489266526 0.03511828  0.00017539  0.0014430   0.000160016
4735  -3955.6501397690  -0.000344532019 0.06434893  0.00033898  0.0012561   0.000150974
4736  -3955.6516710082  -0.001531239189 0.14377795  0.00074606  0.0035919   0.000637553
4737  -3955.6489233617   0.002747646527 0.02965256  0.00012730  0.0024365   0.000427889
4738  -3955.6481123329   0.000811028805 0.01200806  0.00005124  0.0037838   0.000680210
4739  -3955.6476809859   0.000431346958 0.01973613  0.00008511  0.0043250   0.000804338
               *** Restarting incremental Fock matrix formation ***
                             ****Resetting KDIIS****
4740  -3955.6468024995   0.000878486375 0.00129283  0.00000993  0.0053282   0.001085026
4741  -3955.6469722907  -0.000169791136 0.00252760  0.00001935  0.0055072   0.000999815
4742  -3955.6472821283  -0.000309837614 0.00495260  0.00003050  0.0059206   0.000870107
4743  -3955.6473987679  -0.000116639589 0.02252614  0.00011020  0.0046855   0.000669335
4744  -3955.6482354440  -0.000836676148 0.02026967  0.00009078  0.0028908   0.000330337
4745  -3955.6488634668  -0.000628022811 0.00063288  0.00000348  0.0031247   0.000350804
4746  -3955.6488730537  -0.000009586860 0.02426932  0.00011406  0.0031763   0.000356261
4747  -3955.6492229519  -0.000349898221 0.02468464  0.00010831  0.0024640   0.000302069
4748  -3955.6495763182  -0.000353366278 0.01921368  0.00008436  0.0020097   0.000303951
4749  -3955.6499352378  -0.000358919586 0.00855860  0.00003146  0.0036286   0.000346270
4750  -3955.6497698359   0.000165401903 0.01688340  0.00008860  0.0019011   0.000232053
4751  -3955.6499212479  -0.000151412004 0.01628858  0.00008652  0.0008050   0.000169378
4752  -3955.6501077924  -0.000186544483 0.00477018  0.00002617  0.0010720   0.000159102
4753  -3955.6500503153   0.000057477057 0.00731970  0.00004246  0.0010828   0.000139171
4754  -3955.6499742092   0.000076106138 0.00372586  0.00002178  0.0008622   0.000112118
4755  -3955.6500171859  -0.000042976705 0.00255482  0.00001444  0.0010319   0.000102428
4756  -3955.6499892362   0.000027949699 0.00303157  0.00001580  0.0009464   0.000099303
4757  -3955.6500212991  -0.000032062869 0.00166386  0.00000838  0.0009791   0.000100028
4758  -3955.6500039774   0.000017321660 0.01369867  0.00006786  0.0009807   0.000099303
4759  -3955.6498686279   0.000135349454 0.00143329  0.00000749  0.0010354   0.000101746
               *** Restarting incremental Fock matrix formation ***
                             ****Resetting KDIIS****
4760  -3955.6498797532  -0.000011125308 0.00023496  0.00000120  0.0010004   0.000098869
4761  -3955.6498824413  -0.000002688015 0.00071526  0.00000371  0.0010018   0.000098380
4762  -3955.6498903305  -0.000007889263 0.00160389  0.00000795  0.0010089   0.000097834
4763  -3955.6499067899  -0.000016459352 0.00981127  0.00004871  0.0009988   0.000096111
4764  -3955.6500029874  -0.000096197575 0.00943289  0.00004726  0.0009500   0.000096013
4765  -3955.6499098883   0.000093099165 0.00216984  0.00001087  0.0010022   0.000101177
4766  -3955.6499313388  -0.000021450543 0.00372057  0.00001913  0.0010837   0.000103444
4767  -3955.6498930159   0.000038322962 0.01308501  0.00006698  0.0010635   0.000104333
4768  -3955.6500256689  -0.000132653081 0.01900056  0.00009751  0.0010766   0.000100866
4769  -3955.6498301044   0.000195564508 0.00362848  0.00001960  0.0010125   0.000109419
4770  -3955.6498701680  -0.000040063548 0.01676984  0.00008091  0.0010640   0.000104961
4771  -3955.6496942822   0.000175885828 0.05703720  0.00028942  0.0012580   0.000127727
4772  -3955.6503366783  -0.000642396179 0.01905244  0.00010601  0.0012602   0.000216512
4773  -3955.6507206518  -0.000383973415 0.03125455  0.00018340  0.0019478   0.000337661
4774  -3955.6501376737   0.000582978095 0.02345247  0.00012130  0.0009951   0.000177659
4775  -3955.6498902271   0.000247446543 0.01885268  0.00009649  0.0008862   0.000148302
4776  -3955.6500836703  -0.000193443188 0.02655562  0.00014742  0.0009475   0.000154984
4777  -3955.6504869888  -0.000403318490 0.05391394  0.00028397  0.0017779   0.000276869
4778  -3955.6498053900   0.000681598772 0.01572532  0.00007738  0.0008696   0.000152924
4779  -3955.6499615057  -0.000156115652 0.00177787  0.00000950  0.0008466   0.000148218
               *** Restarting incremental Fock matrix formation ***
                             ****Resetting KDIIS****
4780  -3955.6499798768  -0.000018371162 0.00025040  0.00000154  0.0008445   0.000147989
4781  -3955.6499839257  -0.000004048870 0.00017533  0.00000146  0.0008929   0.000142464
4782  -3955.6499851731  -0.000001247352 0.00097485  0.00000462  0.0008617   0.000128057
4783  -3955.6499868027  -0.000001629626 0.00189423  0.00000919  0.0008977   0.000109534
4784  -3955.6500001249  -0.000013322249 0.00577592  0.00002938  0.0010249   0.000097737
4785  -3955.6499422798   0.000057845138 0.00152286  0.00000748  0.0010408   0.000100560
4786  -3955.6499298727   0.000012407063 0.00611995  0.00003162  0.0010820   0.000099907
4787  -3955.6498659489   0.000063923783 0.02226024  0.00011527  0.0010957   0.000106319
4788  -3955.6500978783  -0.000231929306 0.00879258  0.00004591  0.0011494   0.000116000
4789  -3955.6500036393   0.000094238947 0.01035025  0.00005652  0.0011200   0.000111637
4790  -3955.6501230777  -0.000119438437 0.06899649  0.00033509  0.0012406   0.000122922
4791  -3955.6492835743   0.000839503426 0.06775499  0.00032245  0.0019213   0.000285869
4792  -3955.6500874052  -0.000803830882 0.02462861  0.00013498  0.0008774   0.000178926
4793  -3955.6504543190  -0.000366913780 0.00501589  0.00002907  0.0017152   0.000272970
4794  -3955.6505578242  -0.000103505216 0.02611480  0.00014815  0.0018289   0.000300579
4795  -3955.6501243112   0.000433512954 0.00677087  0.00003656  0.0009617   0.000157029
4796  -3955.6502103880  -0.000086076762 0.04211857  0.00021499  0.0010296   0.000181496
4797  -3955.6497571448   0.000453243177 0.03980410  0.00018316  0.0009380   0.000162501
4798  -3955.6491912330   0.000565911836 0.07888151  0.00038146  0.0020392   0.000348122
4799  -3955.6501692297  -0.000977996742 0.01800573  0.00009521  0.0010128   0.000195078
               *** Restarting incremental Fock matrix formation ***
                             ****Resetting KDIIS****
4800  -3955.6499686935   0.000200536250 0.00022262  0.00000144  0.0008656   0.000159262
4801  -3955.6499725143  -0.000003820784 0.00030944  0.00000220  0.0008645   0.000150290
4802  -3955.6499780812  -0.000005566928 0.00073192  0.00000368  0.0008686   0.000135097
4803  -3955.6499807843  -0.000002703086 0.00226939  0.00001167  0.0009415   0.000115610
4804  -3955.6500025655  -0.000021781200 0.00153761  0.00000813  0.0010559   0.000098734
4805  -3955.6499862214   0.000016344058 0.01725322  0.00008701  0.0010456   0.000099562
4806  -3955.6498105050   0.000175716422 0.08060503  0.00045997  0.0011237   0.000115134
4807  -3955.6513993537  -0.001588848741 0.07259343  0.00042259  0.0031195   0.000527503
4808  -3955.6498901775   0.001509176220 0.02295301  0.00010956  0.0009001   0.000139517
4809  -3955.6496485537   0.000241623871 0.05023446  0.00024803  0.0011870   0.000184219
4810  -3955.6501782660  -0.000529712373 0.00511585  0.00002735  0.0011408   0.000191851
4811  -3955.6501161724   0.000062093653 0.00809970  0.00004262  0.0010332   0.000172428
4812  -3955.6500275958   0.000088576592 0.01649987  0.00008837  0.0009816   0.000157169
4813  -3955.6502232139  -0.000195618108 0.09446505  0.00044862  0.0011956   0.000207672
4814  -3955.6489714135   0.001251800421 0.11150889  0.00054302  0.0025409   0.000438825
4815  -3955.6505176287  -0.001546215255 0.00964959  0.00005572  0.0017887   0.000317390
4816  -3955.6503354447   0.000182184066 0.01655753  0.00009105  0.0014308   0.000255340
4817  -3955.6501083757   0.000227068925 0.01132992  0.00005881  0.0010492   0.000176637
4818  -3955.6499875503   0.000120825419 0.00349486  0.00001795  0.0009370   0.000155121
4819  -3955.6500233969  -0.000035846569 0.02133830  0.00010601  0.0009532   0.000158812
               *** Restarting incremental Fock matrix formation ***
                             ****Resetting KDIIS****
4820  -3955.6498128722   0.000210524632 0.00027690  0.00000162  0.0009767   0.000156515
4821  -3955.6498175446  -0.000004672336 0.00015158  0.00000154  0.0010245   0.000149936
4822  -3955.6498204446  -0.000002900064 0.00099826  0.00000477  0.0010107   0.000135229
4823  -3955.6498234955  -0.000003050828 0.00294418  0.00001723  0.0009211   0.000115152
4824  -3955.6498569303  -0.000033434854 0.00072052  0.00000352  0.0009731   0.000097746
4825  -3955.6498496203   0.000007309987 0.00195858  0.00000859  0.0009913   0.000097301
4826  -3955.6498622876  -0.000012667228 0.01694261  0.00008507  0.0010660   0.000094767
4827  -3955.6500284200  -0.000166132455 0.00214247  0.00001098  0.0009165   0.000101855
4828  -3955.6500081679   0.000020252169 0.02415553  0.00013194  0.0009937   0.000095540
4829  -3955.6503136834  -0.000305515563 0.10153887  0.00049077  0.0013736   0.000150208
4830  -3955.6489256018   0.001388081617 0.02704877  0.00011745  0.0025407   0.000441804
4831  -3955.6481815333   0.000744068519 0.03497130  0.00015197  0.0039681   0.000698004
4832  -3955.6490872972  -0.000905763941 0.01580992  0.00007088  0.0022043   0.000423639
4833  -3955.6493772868  -0.000289989565 0.00148161  0.00000804  0.0014882   0.000294377
4834  -3955.6493598650   0.000017421809 0.02525521  0.00011638  0.0014862   0.000357025
4835  -3955.6497019809  -0.000342115949 0.03770519  0.00018555  0.0009889   0.000240925
4836  -3955.6500876203  -0.000385639396 0.00390540  0.00001947  0.0008626   0.000178583
4837  -3955.6500487178   0.000038902483 0.01583282  0.00008372  0.0009038   0.000144972
4838  -3955.6502383239  -0.000189606073 0.08500856  0.00041573  0.0010509   0.000213111
4839  -3955.6528452561  -0.002606932205 0.09982350  0.00051574  0.0055439   0.000923638
               *** Restarting incremental Fock matrix formation ***
                             ****Resetting KDIIS****
4840  -3955.6500133295   0.002831926638 0.00025330  0.00000145  0.0008433   0.000140376
4841  -3955.6500167735  -0.000003444017 0.00014508  0.00000125  0.0008857   0.000135726
4842  -3955.6500178058  -0.000001032309 0.00087288  0.00000397  0.0008567   0.000124520
4843  -3955.6500194982  -0.000001692347 0.00100531  0.00000576  0.0009099   0.000110042
4844  -3955.6500165637   0.000002934434 0.00394008  0.00002026  0.0010269   0.000101865
4845  -3955.6499794398   0.000037123968 0.00031680  0.00000164  0.0010803   0.000101132
4846  -3955.6499822787  -0.000002838995 0.00939012  0.00004852  0.0010670   0.000100343
4847  -3955.6498867521   0.000095526696 0.02242406  0.00011725  0.0010160   0.000102024
4848  -3955.6501247057  -0.000237953668 0.12751796  0.00058295  0.0011801   0.000110656
4849  -3955.6476634437   0.002461261998 0.06159183  0.00026841  0.0043059   0.000848980
4850  -3955.6493344293  -0.001670985620 0.01636320  0.00007501  0.0015398   0.000329203
4851  -3955.6495805260  -0.000246096698 0.01826168  0.00008652  0.0012066   0.000255957
4852  -3955.6497946107  -0.000214084638 0.08013775  0.00045493  0.0009521   0.000184989
4853  -3955.6513330517  -0.001538440982 0.03475825  0.00018029  0.0031150   0.000467459
4854  -3955.6504464189   0.000886632780 0.05239451  0.00027753  0.0015752   0.000218789
4855  -3955.6497988726   0.000647546254 0.01926786  0.00009141  0.0009854   0.000148496
4856  -3955.6495793677   0.000219504937 0.03679987  0.00016431  0.0014255   0.000231440
4857  -3955.6489409495   0.000638418233 0.02471763  0.00010906  0.0026627   0.000449965
4858  -3955.6494012349  -0.000460285482 0.00563701  0.00002493  0.0017893   0.000319160
4859  -3955.6493146977   0.000086537263 0.07396885  0.00035587  0.0019202   0.000330351
               *** Restarting incremental Fock matrix formation ***
                             ****Resetting KDIIS****
4860  -3955.6501793061  -0.000864608408 0.00031717  0.00000224  0.0012547   0.000224057
4861  -3955.6501875550  -0.000008248913 0.00028816  0.00000264  0.0013365   0.000214772
                          ***Energy convergence achieved***
4862  -3955.6501877212  -0.000000166241 0.00140673  0.00000725  0.0012402   0.000187333
4863  -3955.6501868332   0.000000888073 0.00180174  0.00001037  0.0010516   0.000151197
4864  -3955.6501870710  -0.000000237885 0.01119935  0.00005946  0.0012643   0.000127019
                           ***RMSP convergence achieved***
4865  -3955.6500600560   0.000127015029 0.00013954  0.00000098  0.0012466   0.000127003
4866  -3955.6500617642  -0.000001708223 0.00297738  0.00001616  0.0012441   0.000125904
4867  -3955.6500952429  -0.000033478704 0.00096859  0.00000558  0.0012455   0.000116163
4868  -3955.6500917921   0.000003450838 0.00931787  0.00005042  0.0012980   0.000121753
4869  -3955.6499861747   0.000105617427 0.03537420  0.00017524  0.0012102   0.000117783
4870  -3955.6495931696   0.000393005091 0.05037659  0.00024961  0.0013816   0.000181334
4871  -3955.6501371796  -0.000544010046 0.00635841  0.00003563  0.0011740   0.000153475
4872  -3955.6502224432  -0.000085263578 0.05182076  0.00026026  0.0012949   0.000163964
4873  -3955.6496600335   0.000562409736 0.07569278  0.00039769  0.0014608   0.000166822
4874  -3955.6506833202  -0.001023286746 0.11535825  0.00057254  0.0019683   0.000311190
4875  -3955.6490194745   0.001663845709 0.11062742  0.00054231  0.0022217   0.000377757
4876  -3955.6505672664  -0.001547791923 0.15376862  0.00071560  0.0017077   0.000251489
4877  -3955.6477932136   0.002774052865 0.07535252  0.00032457  0.0038256   0.000710232
4878  -3955.6495285245  -0.001735310901 0.07243176  0.00036509  0.0014144   0.000344338
4879  -3955.6503837030  -0.000855178494 0.00140196  0.00000759  0.0016254   0.000379662
               *** Restarting incremental Fock matrix formation ***
                             ****Resetting KDIIS****
4880  -3955.6504090214  -0.000025318468 0.00043154  0.00000336  0.0017580   0.000388886
4881  -3955.6504293685  -0.000020347019 0.00039836  0.00000376  0.0018978   0.000367479
4882  -3955.6504439870  -0.000014618500 0.00217400  0.00001147  0.0019105   0.000320418
4883  -3955.6504413531   0.000002633864 0.00311955  0.00001698  0.0014108   0.000251820
4884  -3955.6504504703  -0.000009117159 0.00746320  0.00004287  0.0017401   0.000197229
4885  -3955.6503270967   0.000123373564 0.00094681  0.00000520  0.0016912   0.000184929
4886  -3955.6503330172  -0.000005920532 0.00550295  0.00003101  0.0017397   0.000179798
4887  -3955.6502414834   0.000091533793 0.01108305  0.00006492  0.0015950   0.000176373
4888  -3955.6500814055   0.000160077943 0.02425079  0.00012760  0.0012640   0.000165516
4889  -3955.6498221794   0.000259226063 0.00579637  0.00002951  0.0010766   0.000159678
4890  -3955.6498817118  -0.000059532385 0.00439126  0.00002285  0.0011019   0.000155647
4891  -3955.6499292492  -0.000047537413 0.00767316  0.00003970  0.0011023   0.000157841
4892  -3955.6498480026   0.000081246606 0.00577841  0.00003320  0.0010717   0.000162733
4893  -3955.6499209009  -0.000072898272 0.00751930  0.00004198  0.0011261   0.000133380
4894  -3955.6500111188  -0.000090217901 0.00188547  0.00001028  0.0012812   0.000119683
4895  -3955.6499907407   0.000020378119 0.00666790  0.00003502  0.0012589   0.000113608
4896  -3955.6499230858   0.000067654835 0.00063214  0.00000336  0.0011402   0.000100792
4897  -3955.6499170245   0.000006061292 0.00221219  0.00001241  0.0011348   0.000099022
4898  -3955.6498931943   0.000023830272 0.00036313  0.00000261  0.0010948   0.000095787
                          ***Energy convergence achieved***
4899  -3955.6498936266  -0.000000432368 0.00349670  0.00001720  0.0010661   0.000094017
               *** Restarting incremental Fock matrix formation ***
                             ****Resetting KDIIS****
4900  -3955.6499274716  -0.000033844942 0.00021723  0.00000116  0.0010576   0.000093753
4901  -3955.6499300009  -0.000002529363 0.00062936  0.00000339  0.0010591   0.000093751
4902  -3955.6499369496  -0.000006948676 0.00122963  0.00000643  0.0010667   0.000093970
4903  -3955.6499497048  -0.000012755209 0.00051991  0.00000290  0.0010732   0.000093934
4904  -3955.6499555145  -0.000005809651 0.00025006  0.00000136  0.0010844   0.000094418
4905  -3955.6499578323  -0.000002317867 0.00159520  0.00000813  0.0010791   0.000093862
4906  -3955.6499422891   0.000015543244 0.00026094  0.00000134  0.0010904   0.000095450
4907  -3955.6499396534   0.000002635682 0.01709926  0.00008781  0.0010886   0.000095222
4908  -3955.6501174729  -0.000177819440 0.12667267  0.00057437  0.0011474   0.000107753
4909  -3955.6477256877   0.002391785142 0.00792137  0.00003413  0.0038274   0.000802041
4910  -3955.6480039989  -0.000278311143 0.08490826  0.00037744  0.0033544   0.000713996
4911  -3955.6497725491  -0.001768550281 0.07984348  0.00044489  0.0011556   0.000148509
4912  -3955.6511612047  -0.001388655529 0.14695739  0.00073267  0.0027595   0.000486930
4913  -3955.6485963138   0.002564890914 0.11358849  0.00049660  0.0026650   0.000471764
4914  -3955.6426109412   0.005985372524 0.01317461  0.00006262  0.0089631   0.002137762
4915  -3955.6437204043  -0.001109463054 0.15715227  0.00067274  0.0079790   0.001818609
4916  -3955.6496191330  -0.005898728724 0.04199783  0.00020604  0.0011370   0.000264916
4917  -3955.6500473179  -0.000428184938 0.03759804  0.00018656  0.0011565   0.000273124
4918  -3955.6496607108   0.000386607194 0.02116010  0.00009869  0.0011728   0.000282844
4919  -3955.6493578705   0.000302840238 0.04849152  0.00023086  0.0016098   0.000389466
               *** Restarting incremental Fock matrix formation ***
                             ****Resetting KDIIS****
4920  -3955.6499345260  -0.000576655445 0.00021048  0.00000188  0.0011340   0.000263704
4921  -3955.6499419502  -0.000007424189 0.00048437  0.00000399  0.0010500   0.000244014
4922  -3955.6499562051  -0.000014254906 0.00088412  0.00000502  0.0008995   0.000212038
4923  -3955.6499649174  -0.000008712330 0.00293540  0.00001528  0.0007229   0.000168153
4924  -3955.6499973387  -0.000032421359 0.00151319  0.00000820  0.0009707   0.000108999
4925  -3955.6500146652  -0.000017326478 0.00320152  0.00001650  0.0009904   0.000105967
4926  -3955.6499808362   0.000033828997 0.00210117  0.00001064  0.0009998   0.000109093
4927  -3955.6499641979   0.000016638352 0.00024147  0.00000122  0.0010507   0.000106346
                          ***Energy convergence achieved***
4928  -3955.6499643423  -0.000000144420 0.00120660  0.00000589  0.0010267   0.000107003
4929  -3955.6499544551   0.000009887244 0.00104873  0.00000559  0.0010766   0.000110687
4930  -3955.6499446185   0.000009836503 0.00070086  0.00000477  0.0010180   0.000106173
4931  -3955.6499526295  -0.000008010916 0.00134632  0.00000679  0.0010676   0.000099145
4932  -3955.6499398557   0.000012773760 0.00073393  0.00000409  0.0010648   0.000097570
4933  -3955.6499479739  -0.000008118199 0.00086067  0.00000455  0.0010862   0.000097942
4934  -3955.6499389088   0.000009065097 0.00388484  0.00002019  0.0010674   0.000098585
4935  -3955.6498996095   0.000039299323 0.00083981  0.00000425  0.0010256   0.000097232
4936  -3955.6498913915   0.000008218023 0.00968914  0.00004905  0.0010370   0.000098402
4937  -3955.6499873315  -0.000095940040 0.00737397  0.00003865  0.0010220   0.000100488
slurmstepd: error: *** JOB 5287871 ON c28a-s35 CANCELLED AT 2023-08-04T06:08:25 DUE TO TIME LIMIT ***
