/home/zfg2013/blue_zfg2013/INPS
c0711a-s13.ufhpc
Sat Aug  5 17:50:25 EDT 2023

                                 *****************
                                 * O   R   C   A *
                                 *****************

           --- An Ab Initio, DFT and Semiempirical electronic structure package ---

                  #######################################################
                  #                        -***-                        #
                  #          Department of theory and spectroscopy      #
                  #               Directorship: Frank Neese             #
                  #        Max Planck Institute fuer Kohlenforschung    #
                  #                Kaiser Wilhelm Platz 1               #
                  #                 D-45470 Muelheim/Ruhr               #
                  #                      Germany                        #
                  #                                                     #
                  #                  All rights reserved                #
                  #                        -***-                        #
                  #######################################################


                         Program Version 4.2.1 -  RELEASE  -


 With contributions from (in alphabetic order):
   Daniel Aravena         : Magnetic Suceptibility
   Michael Atanasov       : Ab Initio Ligand Field Theory (pilot matlab implementation)
   Alexander A. Auer      : GIAO ZORA, VPT2
   Ute Becker             : Parallelization
   Giovanni Bistoni       : ED, misc. LED, open-shell LED, HFLD
   Martin Brehm           : Molecular dynamics
   Dmytro Bykov           : SCF Hessian
   Vijay G. Chilkuri      : MRCI spin determinant printing, contributions to CSF-ICE
   Dipayan Datta          : RHF DLPNO-CCSD density
   Achintya Kumar Dutta   : EOM-CC, STEOM-CC
   Dmitry Ganyushin       : Spin-Orbit,Spin-Spin,Magnetic field MRCI
   Miquel Garcia          : C-PCM Hessian, Gaussian charge scheme
   Yang Guo               : DLPNO-NEVPT2, CIM, IAO-localization
   Andreas Hansen         : Spin unrestricted coupled pair/coupled cluster methods
   Benjamin Helmich-Paris : CASSCF linear response (MC-RPA)
   Lee Huntington         : MR-EOM, pCC
   Robert Izsak           : Overlap fitted RIJCOSX, COSX-SCS-MP3, EOM
   Christian Kollmar      : KDIIS, OOCD, Brueckner-CCSD(T), CCSD density
   Simone Kossmann        : Meta GGA functionals, TD-DFT gradient, OOMP2, MP2 Hessian
   Martin Krupicka        : AUTO-CI
   Lucas Lang             : DCDCAS
   Dagmar Lenk            : GEPOL surface, SMD
   Dimitrios Liakos       : Extrapolation schemes; Compound Job, initial MDCI parallelization
   Dimitrios Manganas     : Further ROCIS development; embedding schemes
   Dimitrios Pantazis     : SARC Basis sets
   Taras Petrenko         : DFT Hessian,TD-DFT gradient, ASA, ECA, R-Raman, ABS, FL, XAS/XES, NRVS
   Peter Pinski           : DLPNO-MP2, DLPNO-MP2 Gradient
   Christoph Reimann      : Effective Core Potentials
   Marius Retegan         : Local ZFS, SOC
   Christoph Riplinger    : Optimizer, TS searches, QM/MM, DLPNO-CCSD(T), (RO)-DLPNO pert. Triples
   Tobias Risthaus        : Range-separated hybrids, TD-DFT gradient, RPA, STAB
   Michael Roemelt        : Original ROCIS implementation
   Masaaki Saitow         : Open-shell DLPNO-CCSD energy and density
   Barbara Sandhoefer     : DKH picture change effects
   Avijit Sen             : IP-ROCIS
   Kantharuban Sivalingam : CASSCF convergence, NEVPT2, FIC-MRCI
   Bernardo de Souza      : ESD, SOC TD-DFT
   Georgi Stoychev        : AutoAux, RI-MP2 NMR
   Willem Van den Heuvel  : Paramagnetic NMR
   Boris Wezisla          : Elementary symmetry handling
   Frank Wennmohs         : Technical directorship


 We gratefully acknowledge several colleagues who have allowed us to
 interface, adapt or use parts of their codes:
   Stefan Grimme, W. Hujo, H. Kruse,             : VdW corrections, initial TS optimization,
                  C. Bannwarth                     DFT functionals, gCP, sTDA/sTD-DF
   Ed Valeev, F. Pavosevic, A. Kumar             : LibInt (2-el integral package), F12 methods
   Garnet Chan, S. Sharma, J. Yang, R. Olivares  : DMRG
   Ulf Ekstrom                                   : XCFun DFT Library
   Mihaly Kallay                                 : mrcc  (arbitrary order and MRCC methods)
   Andreas Klamt, Michael Diedenhofen            : otool_cosmo (COSMO solvation model)
   Jiri Pittner, Ondrej Demel                    : Mk-CCSD
   Frank Weinhold                                : gennbo (NPA and NBO analysis)
   Christopher J. Cramer and Donald G. Truhlar   : smd solvation model
   Lars Goerigk                                  : TD-DFT with DH, B97 family of functionals
   V. Asgeirsson, H. Jonsson                     : NEB implementation
   FAccTs GmbH                                   : IRC, NEB, NEB-TS, Multilevel, MM, QM/MM, CI optimization
   S Lehtola, MJT Oliveira, MAL Marques          : LibXC Library


 Your calculation uses the libint2 library for the computation of 2-el integrals
 For citations please refer to: http://libint.valeyev.net

 Your ORCA version has been built with support for libXC version: 4.2.3
 For citations please refer to: https://tddft.org/programs/libxc/

 This ORCA versions uses:
   CBLAS   interface :  Fast vector & matrix operations
   LAPACKE interface :  Fast linear algebra routines
   SCALAPACK package :  Parallel linear algebra routines


Your calculation utilizes the geometrical counterpoise correction gCP
Please cite in your paper:
H.Kruse, S. Grimme J.Chem.Phys., 136, (2012), 154101 
   

Your calculation utilizes the atom-pairwise dispersion correction
with the Becke-Johnson damping scheme (D3BJ)
Cite in your paper:
S.Grimme, S.Ehrlich, L.Goerigk, J Comput Chem, (2011), 32, 1456–1465 
S.Grimme, J.Antony, S.Ehrlich and H.Krieg, J.Chem.Phys., 132, (2010), 154104 
   

Your calculation utilizes the SMD solvation module
Please cite in your paper:
A.V. Marenich, C.J. Cramer, D.G. Truhlar J. Phys. Chem. B, 113, (2009), 6378 

----- Orbital basis set information -----
Your calculation utilizes the basis: MINIX,
   a combination of small basis sets by S. Grimme (see manual for definitions).

================================================================================
                                        WARNINGS
                       Please study these warnings very carefully!
================================================================================


INFO   : the flag for use of LIBINT has been found!

================================================================================
                                       INPUT FILE
================================================================================
NAME = YMTMDIIYD.inp
|  1> !HF-3c CPCM KDIIS SmallPrint
|  2> %PAL NPROCS 15 END
|  3> %maxcore 10000
|  4> %CPCM
|  5> SMD TRUE
|  6> SMDSOLVENT "WATER"
|  7> END
|  8> 
|  9> %scf
| 10> SCFmode Direct
| 11> maxiter 10000
| 12> 
| 13> end
| 14> 
| 15> %geom
| 16> 
| 17> Constraints
| 18> {C 2 C}
| 19> {C 25 C}
| 20> {C 42 C}
| 21> {C 56 C}
| 22> {C 73 C}
| 23> {C 85 C}
| 24> {C 104 C}
| 25> {C 123 C}
| 26> {C 144 C}
| 27> 
| 28> end
| 29> 
| 30> maxiter 10000
| 31> 
| 32> end
| 33> 
| 34> * xyz 0 1
| 35>    N        0.00000         0.00000         0.00000
| 36>    C        1.46166         0.00000         0.00000
| 37>    C        1.90245         0.00000         1.47367
| 38>    O        1.10446         0.00000         2.41047
| 39>    C        2.01963         1.22475         -0.74395
| 40>    H        1.40218         1.45682         -1.62200
| 41>    H        1.96111         2.11715         -0.10664
| 42>    C        3.43893         1.03289         -1.22728
| 43>    C        4.51374         1.63227         -0.55692
| 44>    H        4.34253         2.26223         0.31369
| 45>    C        5.82146         1.42397         -0.99655
| 46>    H        6.65507         1.88622         -0.47537
| 47>    C        6.05582         0.62841         -2.11173
| 48>    C        5.00256         0.03313         -2.79696
| 49>    H        5.17556         -0.58471         -3.67268
| 50>    C        3.69443         0.23427         -2.35261
| 51>    H        2.86970         -0.23087         -2.89252
| 52>    O        7.34890         0.45529         -2.50709
| 53>    H        7.35453         -0.07095         -3.32368
| 54>    H        1.78923         -0.93915         -0.46253
| 55>    H        -0.46692         0.27006         0.86191
| 56>    H        -0.34000         0.08381         -0.95801
| 57>    H        -0.34000         0.94706         -0.16699
| 58>    N        3.20625         -0.00000         1.78301
| 59>    C        3.62426         0.00022         3.18051
| 60>    C        5.16153         0.00016         3.17525
| 61>    O        5.83186         -0.00004         2.14480
| 62>    C        3.06417         -1.22812         3.91076
| 63>    C        3.15925         -1.09794         5.42962
| 64>    S        2.40832         -2.55294         6.22855
| 65>    C        2.57162         -2.03338         7.95312
| 66>    H        3.26412         0.92605         3.64471
| 67>    H        3.59652         -2.12907         3.57631
| 68>    H        2.01132         -1.36168         3.62845
| 69>    H        2.63147         -0.19864         5.76377
| 70>    H        4.20123         -1.03606         5.75326
| 71>    H        3.62319         -1.87419         8.20536
| 72>    H        2.17203         -2.81517         8.60443
| 73>    H        2.00730         -1.11367         8.12792
| 74>    H        3.82356         -0.44410         1.10892
| 75>    N        5.83550         0.00033         4.33342
| 76>    C        7.30111         0.00005         4.32841
| 77>    C        7.72948         0.00034         5.80406
| 78>    O        6.92549         0.00074         6.73495
| 79>    C        9.38282         1.08418         3.30057
| 80>    C        7.88877         1.22002         3.57648
| 81>    O        7.26495         1.43157         2.30121
| 82>    H        9.73296         1.91465         2.67712
| 83>    H        9.59358         0.16510         2.74252
| 84>    H        9.97362         1.08183         4.21947
| 85>    H        7.71841         2.13313         4.15873
| 86>    H        7.62250         -0.93422         3.85231
| 87>    H        6.88753         0.58049         1.99372
| 88>    H        5.37213         0.37542         5.15697
| 89>    N        9.03073         0.00018         6.12398
| 90>    C        9.43738         0.00068         7.52482
| 91>    C        10.97465         0.00033         7.53204
| 92>    O        11.65332         -0.00027         6.50706
| 93>    C        8.87115         -1.22736         8.25082
| 94>    C        8.95393         -1.09681         9.77037
| 95>    S        8.19626         -2.55146         10.56356
| 96>    C        8.34566         -2.03148         12.28926
| 97>    H        9.07367         0.92670         7.98585
| 98>    H        9.40603         -2.12851         7.92094
| 99>    H        7.82060         -1.36080         7.96001
|100>    H        8.42363         -0.19732         10.10000
|101>    H        9.99326         -1.03504         10.10244
|102>    H        9.39518         -1.87243         12.54998
|103>    H        7.94065         -2.81303         12.93750
|104>    H        7.78012         -1.11162         12.45923
|105>    H        9.65341         -0.44421         5.45504
|106>    N        11.63920         0.00067         8.69564
|107>    C        13.10342         0.00011         8.70252
|108>    C        13.52096         0.00071         10.18628
|109>    O        12.70791         0.00150         11.10968
|110>    C        13.65966         1.22569         7.97889
|111>    C        15.09645         1.02640         7.59227
|112>    O        15.82465         0.10027         7.91200
|113>    O        15.56728         2.04730         6.85094
|114>    H        13.43737         -0.93684         8.24066
|115>    H        13.58850         2.11878         8.61009
|116>    H        13.09884         1.40859         7.05497
|117>    H        11.17066         0.20023         9.57670
|118>    N        14.81953         0.00038         10.51688
|119>    C        15.21509         0.00117         11.92254
|120>    C        16.75568         0.00053         11.94768
|121>    O        17.44453         -0.00046         10.92881
|122>    C        14.57377         -1.17699         12.70141
|123>    C        14.85229         -1.07926         14.21563
|124>    C        13.96441         -1.98923         15.05508
|125>    H        14.86939         0.94987         12.35319
|126>    C        14.99848         -2.54205         12.14157
|127>    H        14.68883         -0.04785         14.55055
|128>    H        15.89898         -1.32557         14.42794
|129>    H        14.14904         -3.04556         14.84106
|130>    H        12.90557         -1.77785         14.87607
|131>    H        14.16530         -1.82860         16.11937
|132>    H        15.47974         -0.39046         9.85056
|133>    H        13.48640         -1.10136         12.56206
|134>    H        14.43329         -3.35353         12.61022
|135>    H        16.06269         -2.73345         12.31191
|136>    H        14.80896         -2.60757         11.06530
|137>    N        17.40665         0.00105         13.11894
|138>    C        18.86671         0.00022         13.14276
|139>    C        19.28408         0.00112         14.62595
|140>    O        18.47469         0.00230         15.55196
|141>    C        19.45621         1.17822         12.32374
|142>    C        20.99138         1.08043         12.20673
|143>    C        21.57654         1.99019         11.13389
|144>    H        19.19488         -0.94856         12.69881
|145>    C        19.02330         2.54339         12.87699
|146>    H        21.27348         0.04897         11.96342
|147>    H        21.46372         1.32690         13.16456
|148>    H        21.41674         3.04657         11.36683
|149>    H        21.13330         1.77864         10.15581
|150>    H        22.65686         1.82951         11.05663
|151>    H        16.93083         0.39206         13.92723
|152>    H        19.04405         1.10242         11.30792
|153>    H        19.33226         3.35475         12.21079
|154>    H        19.45953         2.73496         13.86248
|155>    H        17.93429         2.60896         12.96832
|156>    N        20.58266         0.00062         14.95656
|157>    C        20.97860         0.00169         16.36357
|158>    C        22.51657         0.00076         16.38869
|159>    O        23.20219         -0.00063         15.36678
|160>    C        20.41284         -1.22202         17.10335
|161>    H        19.40022         -1.45379         16.74704
|162>    H        21.00992         -2.11499         16.87521
|163>    C        20.33216         -1.02870         18.60033
|164>    C        21.26823         -1.62787         19.45392
|165>    H        22.05952         -2.25870         19.05388
|166>    C        21.19940         -1.41823         20.83165
|167>    H        21.92662         -1.88031         21.49334
|168>    C        20.18989         -0.62155         21.35858
|169>    C        19.24534         -0.02645         20.52976
|170>    H        18.44962         0.59226         20.93292
|171>    C        19.31861         -0.22894         19.15036
|172>    H        18.57578         0.23607         18.50228
|173>    O        20.15969         -0.44714         22.71025
|174>    H        19.37549         0.07980         22.93637
|175>    H        20.62268         0.94148         16.80331
|176>    H        21.28569         -0.27052         14.27387
|177>    N        23.16752         0.00145         17.55995
|178>    C        24.63157         0.00034         17.58387
|179>    C        25.03181         0.00155         19.07239
|180>    O        24.20806         0.00312         19.98627
|181>    C        25.19666         1.22534         16.86614
|182>    C        26.63778         1.02530         16.49637
|183>    O        27.36185         0.09905         16.82503
|184>    O        27.11760         2.04564         15.76004
|185>    H        24.97051         -0.93698         17.12641
|186>    H        25.11851         2.11878         17.49601
|187>    H        24.64670         1.40796         15.93566
|188>    H        22.68884         0.20165         18.43539
|189>    O        26.35477         0.00080         19.34618
|190> *
|191> 
|192>                          ****END OF INPUT****
================================================================================

                       ****************************
                       * Single Point Calculation *
                       ****************************

---------------------------------
CARTESIAN COORDINATES (ANGSTROEM)
---------------------------------
  N      0.000000    0.000000    0.000000
  C      1.461660    0.000000    0.000000
  C      1.902450    0.000000    1.473670
  O      1.104460    0.000000    2.410470
  C      2.019630    1.224750   -0.743950
  H      1.402180    1.456820   -1.622000
  H      1.961110    2.117150   -0.106640
  C      3.438930    1.032890   -1.227280
  C      4.513740    1.632270   -0.556920
  H      4.342530    2.262230    0.313690
  C      5.821460    1.423970   -0.996550
  H      6.655070    1.886220   -0.475370
  C      6.055820    0.628410   -2.111730
  C      5.002560    0.033130   -2.796960
  H      5.175560   -0.584710   -3.672680
  C      3.694430    0.234270   -2.352610
  H      2.869700   -0.230870   -2.892520
  O      7.348900    0.455290   -2.507090
  H      7.354530   -0.070950   -3.323680
  H      1.789230   -0.939150   -0.462530
  H     -0.466920    0.270060    0.861910
  H     -0.340000    0.083810   -0.958010
  H     -0.340000    0.947060   -0.166990
  N      3.206250   -0.000000    1.783010
  C      3.624260    0.000220    3.180510
  C      5.161530    0.000160    3.175250
  O      5.831860   -0.000040    2.144800
  C      3.064170   -1.228120    3.910760
  C      3.159250   -1.097940    5.429620
  S      2.408320   -2.552940    6.228550
  C      2.571620   -2.033380    7.953120
  H      3.264120    0.926050    3.644710
  H      3.596520   -2.129070    3.576310
  H      2.011320   -1.361680    3.628450
  H      2.631470   -0.198640    5.763770
  H      4.201230   -1.036060    5.753260
  H      3.623190   -1.874190    8.205360
  H      2.172030   -2.815170    8.604430
  H      2.007300   -1.113670    8.127920
  H      3.823560   -0.444100    1.108920
  N      5.835500    0.000330    4.333420
  C      7.301110    0.000050    4.328410
  C      7.729480    0.000340    5.804060
  O      6.925490    0.000740    6.734950
  C      9.382820    1.084180    3.300570
  C      7.888770    1.220020    3.576480
  O      7.264950    1.431570    2.301210
  H      9.732960    1.914650    2.677120
  H      9.593580    0.165100    2.742520
  H      9.973620    1.081830    4.219470
  H      7.718410    2.133130    4.158730
  H      7.622500   -0.934220    3.852310
  H      6.887530    0.580490    1.993720
  H      5.372130    0.375420    5.156970
  N      9.030730    0.000180    6.123980
  C      9.437380    0.000680    7.524820
  C     10.974650    0.000330    7.532040
  O     11.653320   -0.000270    6.507060
  C      8.871150   -1.227360    8.250820
  C      8.953930   -1.096810    9.770370
  S      8.196260   -2.551460   10.563560
  C      8.345660   -2.031480   12.289260
  H      9.073670    0.926700    7.985850
  H      9.406030   -2.128510    7.920940
  H      7.820600   -1.360800    7.960010
  H      8.423630   -0.197320   10.100000
  H      9.993260   -1.035040   10.102440
  H      9.395180   -1.872430   12.549980
  H      7.940650   -2.813030   12.937500
  H      7.780120   -1.111620   12.459230
  H      9.653410   -0.444210    5.455040
  N     11.639200    0.000670    8.695640
  C     13.103420    0.000110    8.702520
  C     13.520960    0.000710   10.186280
  O     12.707910    0.001500   11.109680
  C     13.659660    1.225690    7.978890
  C     15.096450    1.026400    7.592270
  O     15.824650    0.100270    7.912000
  O     15.567280    2.047300    6.850940
  H     13.437370   -0.936840    8.240660
  H     13.588500    2.118780    8.610090
  H     13.098840    1.408590    7.054970
  H     11.170660    0.200230    9.576700
  N     14.819530    0.000380   10.516880
  C     15.215090    0.001170   11.922540
  C     16.755680    0.000530   11.947680
  O     17.444530   -0.000460   10.928810
  C     14.573770   -1.176990   12.701410
  C     14.852290   -1.079260   14.215630
  C     13.964410   -1.989230   15.055080
  H     14.869390    0.949870   12.353190
  C     14.998480   -2.542050   12.141570
  H     14.688830   -0.047850   14.550550
  H     15.898980   -1.325570   14.427940
  H     14.149040   -3.045560   14.841060
  H     12.905570   -1.777850   14.876070
  H     14.165300   -1.828600   16.119370
  H     15.479740   -0.390460    9.850560
  H     13.486400   -1.101360   12.562060
  H     14.433290   -3.353530   12.610220
  H     16.062690   -2.733450   12.311910
  H     14.808960   -2.607570   11.065300
  N     17.406650    0.001050   13.118940
  C     18.866710    0.000220   13.142760
  C     19.284080    0.001120   14.625950
  O     18.474690    0.002300   15.551960
  C     19.456210    1.178220   12.323740
  C     20.991380    1.080430   12.206730
  C     21.576540    1.990190   11.133890
  H     19.194880   -0.948560   12.698810
  C     19.023300    2.543390   12.876990
  H     21.273480    0.048970   11.963420
  H     21.463720    1.326900   13.164560
  H     21.416740    3.046570   11.366830
  H     21.133300    1.778640   10.155810
  H     22.656860    1.829510   11.056630
  H     16.930830    0.392060   13.927230
  H     19.044050    1.102420   11.307920
  H     19.332260    3.354750   12.210790
  H     19.459530    2.734960   13.862480
  H     17.934290    2.608960   12.968320
  N     20.582660    0.000620   14.956560
  C     20.978600    0.001690   16.363570
  C     22.516570    0.000760   16.388690
  O     23.202190   -0.000630   15.366780
  C     20.412840   -1.222020   17.103350
  H     19.400220   -1.453790   16.747040
  H     21.009920   -2.114990   16.875210
  C     20.332160   -1.028700   18.600330
  C     21.268230   -1.627870   19.453920
  H     22.059520   -2.258700   19.053880
  C     21.199400   -1.418230   20.831650
  H     21.926620   -1.880310   21.493340
  C     20.189890   -0.621550   21.358580
  C     19.245340   -0.026450   20.529760
  H     18.449620    0.592260   20.932920
  C     19.318610   -0.228940   19.150360
  H     18.575780    0.236070   18.502280
  O     20.159690   -0.447140   22.710250
  H     19.375490    0.079800   22.936370
  H     20.622680    0.941480   16.803310
  H     21.285690   -0.270520   14.273870
  N     23.167520    0.001450   17.559950
  C     24.631570    0.000340   17.583870
  C     25.031810    0.001550   19.072390
  O     24.208060    0.003120   19.986270
  C     25.196660    1.225340   16.866140
  C     26.637780    1.025300   16.496370
  O     27.361850    0.099050   16.825030
  O     27.117600    2.045640   15.760040
  H     24.970510   -0.936980   17.126410
  H     25.118510    2.118780   17.496010
  H     24.646700    1.407960   15.935660
  H     22.688840    0.201650   18.435390
  O     26.354770    0.000800   19.346180

----------------------------
CARTESIAN COORDINATES (A.U.)
----------------------------
  NO LB      ZA    FRAG     MASS         X           Y           Z
   0 N     7.0000    0    14.007    0.000000    0.000000    0.000000
   1 C     6.0000    0    12.011    2.762137    0.000000    0.000000
   2 C     6.0000    0    12.011    3.595109    0.000000    2.784833
   3 O     8.0000    0    15.999    2.087127    0.000000    4.555128
   4 C     6.0000    0    12.011    3.816548    2.314442   -1.405862
   5 H     1.0000    0     1.008    2.649736    2.752991   -3.065136
   6 H     1.0000    0     1.008    3.705961    4.000834   -0.201520
   7 C     6.0000    0    12.011    6.498636    1.951879   -2.319223
   8 C     6.0000    0    12.011    8.529732    3.084543   -1.052426
   9 H     1.0000    0     1.008    8.206192    4.274995    0.592788
  10 C     6.0000    0    12.011   11.000965    2.690913   -1.883207
  11 H     1.0000    0     1.008   12.576260    3.564439   -0.898319
  12 C     6.0000    0    12.011   11.443841    1.187523   -3.990591
  13 C     6.0000    0    12.011    9.453468    0.062607   -5.285488
  14 H     1.0000    0     1.008    9.780391   -1.104942   -6.940359
  15 C     6.0000    0    12.011    6.981461    0.442706   -4.445789
  16 H     1.0000    0     1.008    5.422947   -0.436281   -5.466071
  17 O     8.0000    0    15.999   13.887408    0.860373   -4.737713
  18 H     1.0000    0     1.008   13.898048   -0.134076   -6.280845
  19 H     1.0000    0     1.008    3.381155   -1.774736   -0.874055
  20 H     1.0000    0     1.008   -0.882351    0.510339    1.628774
  21 H     1.0000    0     1.008   -0.642507    0.158378   -1.810377
  22 H     1.0000    0     1.008   -0.642507    1.789684   -0.315565
  23 N     7.0000    0    14.007    6.058934   -0.000000    3.369401
  24 C     6.0000    0    12.011    6.848859    0.000416    6.010293
  25 C     6.0000    0    12.011    9.753878    0.000302    6.000353
  26 O     8.0000    0    15.999   11.020618   -0.000076    4.053085
  27 C     6.0000    0    12.011    5.790442   -2.320810    7.390265
  28 C     6.0000    0    12.011    5.970117   -2.074806   10.260495
  29 S    16.0000    0    32.060    4.551065   -4.824357   11.770254
  30 C     6.0000    0    12.011    4.859658   -3.842531   15.029219
  31 H     1.0000    0     1.008    6.168293    1.749981    6.887504
  32 H     1.0000    0     1.008    6.796438   -4.023359    6.758246
  33 H     1.0000    0     1.008    3.800844   -2.573202    6.856777
  34 H     1.0000    0     1.008    4.972758   -0.375375   10.891947
  35 H     1.0000    0     1.008    7.939174   -1.957870   10.872086
  36 H     1.0000    0     1.008    6.846837   -3.541706   15.505883
  37 H     1.0000    0     1.008    4.104542   -5.319900   16.260016
  38 H     1.0000    0     1.008    3.793247   -2.104531   15.359543
  39 H     1.0000    0     1.008    7.225481   -0.839227    2.095555
  40 N     7.0000    0    14.007   11.027497    0.000624    8.188977
  41 C     6.0000    0    12.011   13.797098    0.000094    8.179509
  42 C     6.0000    0    12.011   14.606600    0.000643   10.968084
  43 O     8.0000    0    15.999   13.087279    0.001398   12.727211
  44 C     6.0000    0    12.011   17.730960    2.048803    6.237173
  45 C     6.0000    0    12.011   14.907615    2.305504    6.758568
  46 O     8.0000    0    15.999   13.728766    2.705275    4.348657
  47 H     1.0000    0     1.008   18.392629    3.618164    5.059024
  48 H     1.0000    0     1.008   18.129239    0.311994    5.182612
  49 H     1.0000    0     1.008   18.847410    2.044362    7.973643
  50 H     1.0000    0     1.008   14.585681    4.031032    7.858861
  51 H     1.0000    0     1.008   14.404437   -1.765420    7.279811
  52 H     1.0000    0     1.008   13.015545    1.096967    3.767585
  53 H     1.0000    0     1.008   10.151854    0.709441    9.745261
  54 N     7.0000    0    14.007   17.065606    0.000340   11.572645
  55 C     6.0000    0    12.011   17.834064    0.001285   14.219849
  56 C     6.0000    0    12.011   20.739083    0.000624   14.233493
  57 O     8.0000    0    15.999   22.021583   -0.000510   12.296561
  58 C     6.0000    0    12.011   16.764044   -2.319374   15.591790
  59 C     6.0000    0    12.011   16.920476   -2.072671   18.463324
  60 S    16.0000    0    32.060   15.488687   -4.821561   19.962235
  61 C     6.0000    0    12.011   15.771012   -3.838941   23.223336
  62 H     1.0000    0     1.008   17.146751    1.751209   15.091069
  63 H     1.0000    0     1.008   17.774821   -4.022301   14.968407
  64 H     1.0000    0     1.008   14.778792   -2.571539   15.042239
  65 H     1.0000    0     1.008   15.918354   -0.372881   19.086234
  66 H     1.0000    0     1.008   18.884525   -1.955942   19.090845
  67 H     1.0000    0     1.008   17.754317   -3.538380   23.716025
  68 H     1.0000    0     1.008   15.005654   -5.315856   24.448332
  69 H     1.0000    0     1.008   14.702296   -2.100657   23.544533
  70 H     1.0000    0     1.008   18.242301   -0.839435   10.308532
  71 N     7.0000    0    14.007   21.994900    0.001266   16.432378
  72 C     6.0000    0    12.011   24.761875    0.000208   16.445379
  73 C     6.0000    0    12.011   25.550911    0.001342   19.249280
  74 O     8.0000    0    15.999   24.014470    0.002835   20.994253
  75 C     6.0000    0    12.011   25.813016    2.316218   15.077917
  76 C     6.0000    0    12.011   28.528156    1.939615   14.347311
  77 O     8.0000    0    15.999   29.904255    0.189483   14.951513
  78 O     8.0000    0    15.999   29.417896    3.868836   12.946400
  79 H     1.0000    0     1.008   25.392949   -1.770371   15.572591
  80 H     1.0000    0     1.008   25.678544    4.003914   16.270712
  81 H     1.0000    0     1.008   24.753220    2.661849   13.331961
  82 H     1.0000    0     1.008   21.109488    0.378380   18.097340
  83 N     7.0000    0    14.007   28.004853    0.000718   19.874023
  84 C     6.0000    0    12.011   28.752353    0.002211   22.530335
  85 C     6.0000    0    12.011   31.663646    0.001002   22.577843
  86 O     8.0000    0    15.999   32.965384   -0.000869   20.652458
  87 C     6.0000    0    12.011   27.540434   -2.224189   24.002186
  88 C     6.0000    0    12.011   28.066761   -2.039506   26.863648
  89 C     6.0000    0    12.011   26.388911   -3.759100   28.449978
  90 H     1.0000    0     1.008   28.099075    1.794994   23.344146
  91 C     6.0000    0    12.011   28.343020   -4.803778   22.944242
  92 H     1.0000    0     1.008   27.757866   -0.090423   27.496555
  93 H     1.0000    0     1.008   30.044718   -2.504964   27.264855
  94 H     1.0000    0     1.008   26.737811   -5.755274   28.045539
  95 H     1.0000    0     1.008   24.387993   -3.359650   28.111698
  96 H     1.0000    0     1.008   26.768538   -3.455553   30.461195
  97 H     1.0000    0     1.008   29.252469   -0.737862   18.614861
  98 H     1.0000    0     1.008   25.485603   -2.081269   23.738853
  99 H     1.0000    0     1.008   27.274965   -6.337253   23.829862
 100 H     1.0000    0     1.008   30.354085   -5.165472   23.266138
 101 H     1.0000    0     1.008   27.984879   -4.927593   20.910387
 102 N     7.0000    0    14.007   32.893801    0.001984   24.791204
 103 C     6.0000    0    12.011   35.652915    0.000416   24.836217
 104 C     6.0000    0    12.011   36.441630    0.002116   27.639040
 105 O     8.0000    0    15.999   34.912105    0.004346   29.388945
 106 C     6.0000    0    12.011   36.766909    2.226513   23.288494
 107 C     6.0000    0    12.011   39.667959    2.041717   23.067377
 108 C     6.0000    0    12.011   40.773752    3.760914   21.040003
 109 H     1.0000    0     1.008   36.273066   -1.792519   23.997273
 110 C     6.0000    0    12.011   35.948827    4.806311   24.333985
 111 H     1.0000    0     1.008   40.201051    0.092540   22.607587
 112 H     1.0000    0     1.008   40.560553    2.507478   24.877413
 113 H     1.0000    0     1.008   40.471773    5.757183   21.480196
 114 H     1.0000    0     1.008   39.936149    3.361142   19.191700
 115 H     1.0000    0     1.008   42.815260    3.457273   20.894003
 116 H     1.0000    0     1.008   31.994632    0.740886   26.318651
 117 H     1.0000    0     1.008   35.988039    2.083272   21.368872
 118 H     1.0000    0     1.008   36.532677    6.339559   23.075049
 119 H     1.0000    0     1.008   36.773182    5.168325   26.196291
 120 H     1.0000    0     1.008   33.890897    4.930220   24.506573
 121 N     7.0000    0    14.007   38.895591    0.001172   28.263802
 122 C     6.0000    0    12.011   39.643809    0.003194   30.922666
 123 C     6.0000    0    12.011   42.550151    0.001436   30.970136
 124 O     8.0000    0    15.999   43.845785   -0.001191   29.039006
 125 C     6.0000    0    12.011   38.574677   -2.309283   32.320647
 126 H     1.0000    0     1.008   36.661103   -2.747265   31.647319
 127 H     1.0000    0     1.008   39.702995   -3.996752   31.889525
 128 C     6.0000    0    12.011   38.422214   -1.943961   35.149530
 129 C     6.0000    0    12.011   40.191130   -3.076228   36.762581
 130 H     1.0000    0     1.008   41.686451   -4.268324   36.006615
 131 C     6.0000    0    12.011   40.061060   -2.680066   39.366113
 132 H     1.0000    0     1.008   41.435307   -3.553271   40.616526
 133 C     6.0000    0    12.011   38.153363   -1.174559   40.361867
 134 C     6.0000    0    12.011   36.368422   -0.049983   38.795624
 135 H     1.0000    0     1.008   34.864729    1.119209   39.557486
 136 C     6.0000    0    12.011   36.506882   -0.432634   36.188936
 137 H     1.0000    0     1.008   35.103137    0.446108   34.964242
 138 O     8.0000    0    15.999   38.096293   -0.844972   42.916153
 139 H     1.0000    0     1.008   36.614370    0.150800   43.343458
 140 H     1.0000    0     1.008   38.971217    1.779139   31.753654
 141 H     1.0000    0     1.008   40.224125   -0.511209   26.973705
 142 N     7.0000    0    14.007   43.780268    0.002740   33.183496
 143 C     6.0000    0    12.011   46.546922    0.000643   33.228699
 144 C     6.0000    0    12.011   47.303266    0.002929   36.041594
 145 O     8.0000    0    15.999   45.746604    0.005896   37.768577
 146 C     6.0000    0    12.011   47.614787    2.315557   31.872386
 147 C     6.0000    0    12.011   50.338109    1.937536   31.173622
 148 O     8.0000    0    15.999   51.706403    0.187177   31.794699
 149 O     8.0000    0    15.999   51.244837    3.865699   29.782159
 150 H     1.0000    0     1.008   47.187425   -1.770636   32.364225
 151 H     1.0000    0     1.008   47.467105    4.003914   33.062667
 152 H     1.0000    0     1.008   46.575513    2.660659   30.114033
 153 H     1.0000    0     1.008   42.875694    0.381063   34.837838
 154 O     8.0000    0    15.999   49.803298    0.001512   36.558982

--------------------------------
INTERNAL COORDINATES (ANGSTROEM)
--------------------------------
 N      0   0   0     0.000000000000     0.00000000     0.00000000
 C      1   0   0     1.461660000000     0.00000000     0.00000000
 C      2   1   0     1.538180448777   106.65247020     0.00000000
 O      3   2   1     1.230602405369   122.92233057     0.00000000
 C      2   1   3     1.537792146520   111.27461287   238.72424526
 H      5   2   1     1.098213453706   110.55418826   322.22000738
 H      5   2   1     1.098165008776   110.31086381    78.16494564
 C      5   2   1     1.511565624940   113.22177794   201.65914571
 C      8   5   2     1.401376269993   120.85762834   256.41721681
 H      9   8   5     1.088174727606   120.64062890   358.85410193
 C      9   8   5     1.395275967434   120.28245868   178.62969638
 H     11   9   8     1.086374376999   120.29809405   180.17378908
 C     11   9   8     1.389772195577   119.75809185     0.60194841
 C     13  11   9     1.390415426734   120.84979748   359.89643179
 H     14  13  11     1.085606182738   121.36482051   179.60837478
 C     14  13  11     1.396104694856   119.42232900   359.70200229
 H     16  14  13     1.089971376046   119.32964793   179.83374537
 O     13  11   9     1.363207963005   117.73434450   179.84475842
 H     18  13  11     0.971483125227   108.54619952   183.56893365
 H      2   1   3     1.096922434952   107.37512031   116.22017872
 H      1   2   3     1.016777034605   117.33651104    17.39720215
 H      1   2   3     1.020003566758   109.47114980   175.00029763
 H      1   2   3     1.020004070433   109.47113980    99.99986914
 N      3   2   1     1.339994655064   119.99968832   180.00000000
 C     24   3   2     1.458677023367   119.99980980   179.99002174
 C     25  24   3     1.537279000084   106.45654615   180.00010474
 O     26  25  24     1.229296364348   123.24091760     0.00000000
 C     25  24   3     1.534856679368   110.55644509    58.73993585
 C     28  25  24     1.527390826999   112.46969066   194.84557588
 S     29  28  25     1.821869921207   110.01995177   177.39343823
 C     30  29  28     1.808521818641    98.71470781   183.97721057
 H     25  24   3     1.096514317508   108.15527515   297.31625833
 H     28  25  24     1.098619236815   109.55061952    72.15245873
 H     28  25  24     1.098194123186   108.95768671   315.82404787
 H     29  28  25     1.094965040949   110.08783607    57.40855328
 H     29  28  25     1.092837730132   111.01862516   296.83749090
 H     31  30  29     1.093053493019   110.41158388   300.09245346
 H     31  30  29     1.093193710328   109.24908212   180.77150436
 H     31  30  29     1.093105020801   110.33978619    61.53816317
 H     24   3   2     1.016215417222   115.97124135   330.91521810
 N     26  25  24     1.339997514438   120.00022026   179.99998664
 C     41  26  25     1.465618589743   120.00040623   179.98994265
 C     42  41  26     1.536568860644   105.99175190   180.00032734
 O     43  42  41     1.230022874665   122.99591141     0.00000000
 C     42  41  26     2.562285980643   144.46179648    46.75082652
 C     45  42  41     1.525373474333    33.83565211    19.97189105
 O     46  45  42     1.435346079453   106.14718100   236.31083661
 H     45  42  41     1.095887011968   143.94220523    10.36834151
 H     45  42  41     1.095695042656    90.32500507   250.95775914
 H     45  42  41     1.092441015570    95.79944503   142.00340132
 H     46  45  42     1.096269795351   108.81130739   122.21149324
 H     42  41  26     1.096732955190   107.13883166   296.96579274
 H     47  46  45     0.980475967528   108.54203529    99.77177344
 H     41  26  25     1.016680317258   118.09497399   335.28910179
 N     43  42  41     1.340000147201   120.00016433   180.00034291
 C     55  43  42     1.458669660376   120.00004013   179.98980844
 C     56  55  43     1.537286994611   106.45657995   179.99983534
 O     57  56  55     1.229299527902   123.24064406     0.00000000
 C     56  55  43     1.534853300645   110.55680505    58.73952477
 C     59  56  55     1.527392560346   112.47001485   194.84529560
 S     60  59  56     1.821872890050   110.02022034   177.39333223
 C     61  60  59     1.808518744830    98.71469325   183.97750904
 H     56  55  43     1.096515693185   108.15566846   297.31547737
 H     59  56  55     1.098630397950   109.55093950    72.15275649
 H     59  56  55     1.098194878972   108.95784425   315.82423577
 H     60  59  56     1.094968623751   110.08784702    57.40845313
 H     60  59  56     1.092837072349   111.01883157   296.83783751
 H     62  61  60     1.093052629703   110.41132574   300.09219765
 H     62  61  60     1.093191932005   109.24850643   180.77177461
 H     62  61  60     1.093100046702   110.33956187    61.53807295
 H     55  43  42     1.016215320737   115.97114788   330.91467675
 N     57  56  55     1.339996932123   120.00044717   180.00001358
 C     72  57  56     1.464236270689   120.00056390   179.98975984
 C     73  72  57     1.541390200176   105.98616252   179.99996077
 O     74  73  72     1.230332673142   122.91926018     0.00000000
 C     73  72  57     1.528100013383   111.19060840    59.38428016
 C     76  73  72     1.501185209293   111.33860474   198.32953993
 O     77  76  73     1.220745382871   127.17087238   352.12470706
 O     77  76  73     1.346658036697   112.07164814   174.51876114
 H     73  72  57     1.096682526805   107.62909083   296.34994387
 H     76  73  72     1.095941117807   110.92871789    77.28665808
 H     76  73  72     1.096175008290   110.28703578   317.13108538
 H     72  57  56     1.017654483997   121.56870942   346.72623394
 N     74  73  72     1.339992729010   120.00031857   180.00001390
 C     84  74  73     1.460256269735   120.00023304   179.98996086
 C     85  84  74     1.540795241848   106.65175309   180.00007768
 O     86  85  84     1.229882668997   123.12743041     0.00000000
 C     85  84  74     1.551125657353   111.77416838    54.93151660
 C     88  85  84     1.542720568249   111.72143504   186.89099135
 C     89  88  85     1.523500114145   113.43872561   165.20817183
 H     85  84  74     1.097724738949   107.02586207   295.38674183
 C     88  85  84     1.535313718202   112.20070345    61.00941290
 H     89  88  85     1.096675506292   109.41594100    44.73469242
 H     89  88  85     1.096040194655   110.38342350   287.08123429
 H     90  89  88     1.093492508525   111.76167470    64.24259030
 H     90  89  88     1.094471667107   110.99818938   302.91896267
 H     90  89  88     1.094930131607   109.93973008   183.55469055
 H     84  74  73     1.016176900003   117.90031686   334.24385951
 H     88  85  84     1.098868434482   107.04815369   304.18380071
 H     92  88  85     1.094336488015   111.11679507   187.81350421
 H     92  88  85     1.094619842548   111.57160063    67.46811722
 H     92  88  85     1.094791219229   111.33353885   306.58920407
 N     86  85  84     1.340004551821   119.99957373   180.00005832
 C    103  86  85     1.460254527437   119.99933673   179.98987626
 C    104 103  86     1.540795607146   106.65125153   179.99980306
 O    105 104 103     1.229881329479   123.12793401     0.00000000
 C    104 103  86     1.551124756556   111.77430309    54.93195192
 C    107 104 103     1.542725235776   111.72140802   186.89022278
 C    108 107 104     1.523502920509   113.43858828   165.20769151
 H    104 103  86     1.097711546719   107.02641643   295.38613618
 C    107 104 103     1.535312919082   112.20087234    61.00901772
 H    108 107 104     1.096672192453   109.41566268    44.73428865
 H    108 107 104     1.096034144267   110.38376354   287.08093142
 H    109 108 107     1.093497045263   111.76139379    64.24323075
 H    109 108 107     1.094465890971   110.99803838   302.91907109
 H    109 108 107     1.094933090376   109.93904688   183.55478956
 H    103  86  85     1.016182176876   117.90008403   334.24321022
 H    107 104 103     1.098868407954   107.04829874   304.18272147
 H    111 107 104     1.094341706781   111.11704030   187.81360817
 H    111 107 104     1.094616927468   111.57202698    67.46846199
 H    111 107 104     1.094798325675   111.33337413   306.58866245
 N    105 104 103     1.340004939730   120.00027135   179.99999266
 C    122 105 104     1.461658909801   120.00053122   179.99021267
 C    123 122 105     1.538175412689   106.65258768   180.00019886
 O    124 123 122     1.230600164391   122.92273094     0.00000000
 C    123 122 105     1.537798748244   111.27450757    58.72409716
 H    126 123 122     1.098213737576   110.55386194   322.22052391
 H    126 123 122     1.098156549359   110.30989450    78.16515172
 C    126 123 122     1.511565746238   113.22151284   201.65949546
 C    129 126 123     1.401373476950   120.85699430   256.41695617
 H    130 129 126     1.088172024360   120.64155702   358.85435405
 C    130 129 126     1.395287228996   120.28183257   178.62981630
 H    132 130 129     1.086370337822   120.29749867   180.17433499
 C    132 130 129     1.389771451498   119.75814610     0.60241529
 C    134 132 130     1.390417672824   120.85021231   359.89589638
 H    135 134 132     1.085592173931   121.36526567   179.60884041
 C    135 134 132     1.396107106565   119.42157362   359.70271206
 H    137 135 134     1.089971740643   119.32905191   179.83448393
 O    134 132 130     1.363210430198   117.73432296   179.84480814
 H    139 134 132     0.971476020291   108.54613803   183.56850239
 H    123 122 105     1.096930060715   107.37520457   296.22018871
 H    122 105 104     1.016776138882   120.29808989   342.07407876
 N    124 123 122     1.339994912752   119.99965870   180.00007362
 C    143 124 123     1.464245813038   119.99993764   179.98984706
 C    144 143 124     1.541390707154   105.98597293   179.99991414
 O    145 144 143     1.230342709086   122.91927999     0.00000000
 C    144 143 124     1.528099493161   111.19045278    59.38456009
 C    147 144 143     1.501190430592   111.33811783   198.32954373
 O    148 147 144     1.220751335449   127.17071689   352.12467472
 O    148 147 144     1.346663587129   112.07148533   174.51836308
 H    144 143 124     1.096685350317   107.62891499   296.34969871
 H    147 144 143     1.095937349030   110.92915504    77.28698117
 H    147 144 143     1.096174756323   110.28638121   317.13034239
 H    143 124 123     1.017649141895   121.56935349   346.72563510
 O    145 144 143     1.350993963051   116.74239612   179.99978628

---------------------------
INTERNAL COORDINATES (A.U.)
---------------------------
 N      0   0   0     0.000000000000     0.00000000     0.00000000
 C      1   0   0     2.762137100907     0.00000000     0.00000000
 C      2   1   0     2.906739792741   106.65247020     0.00000000
 O      3   2   1     2.325501525892   122.92233057     0.00000000
 C      2   1   3     2.906006007819   111.27461287   238.72424526
 H      5   2   1     2.075322664091   110.55418826   322.22000738
 H      5   2   1     2.075231116442   110.31086381    78.16494564
 C      5   2   1     2.856445064586   113.22177794   201.65914571
 C      8   5   2     2.648217360863   120.85762834   256.41721681
 H      9   8   5     2.056352221029   120.64062890   358.85410193
 C      9   8   5     2.636689459693   120.28245868   178.62969638
 H     11   9   8     2.052950051437   120.29809405   180.17378908
 C     11   9   8     2.626288838180   119.75809185     0.60194841
 C     13  11   9     2.627504368907   120.84979748   359.89643179
 H     14  13  11     2.051498374667   121.36482051   179.60837478
 C     14  13  11     2.638255527560   119.42232900   359.70200229
 H     16  14  13     2.059747394541   119.32964793   179.83374537
 O     13  11   9     2.576089713660   117.73434450   179.84475842
 H     18  13  11     1.835837050404   108.54619952   183.56893365
 H      2   1   3     2.072882992212   107.37512031   116.22017872
 H      1   2   3     1.921430134664   117.33651104    17.39720215
 H      1   2   3     1.927527396796   109.47114980   175.00029763
 H      1   2   3     1.927528348603   109.47113980    99.99986914
 N      3   2   1     2.532222918989   119.99968832   180.00000000
 C     24   3   2     2.756500092008   119.99980980   179.99002174
 C     25  24   3     2.905036301588   106.45654615   180.00010474
 O     26  25  24     2.323033466043   123.24091760     0.00000000
 C     25  24   3     2.900458778825   110.55644509    58.73993585
 C     28  25  24     2.886350362491   112.46969066   194.84557588
 S     29  28  25     3.442835202711   110.01995177   177.39343823
 C     30  29  28     3.417610944452    98.71470781   183.97721057
 H     25  24   3     2.072111762014   108.15527515   297.31625833
 H     28  25  24     2.076089483038   109.55061952    72.15245873
 H     28  25  24     2.075286134703   108.95768671   315.82404787
 H     29  28  25     2.069184053611   110.08783607    57.40855328
 H     29  28  25     2.065164018766   111.01862516   296.83749090
 H     31  30  29     2.065571751531   110.41158388   300.09245346
 H     31  30  29     2.065836723845   109.24908212   180.77150436
 H     31  30  29     2.065669124928   110.33978619    61.53816317
 H     24   3   2     1.920368831618   115.97124135   330.91521810
 N     26  25  24     2.532228322423   120.00022026   179.99998664
 C     41  26  25     2.769617751398   120.00040623   179.98994265
 C     42  41  26     2.903694332528   105.99175190   180.00032734
 O     43  42  41     2.324406371576   122.99591141     0.00000000
 C     42  41  26     4.842018780201   144.46179648    46.75082652
 C     45  42  41     2.882538118438    33.83565211    19.97189105
 O     46  45  42     2.712410997563   106.14718100   236.31083661
 H     45  42  41     2.070926326341   143.94220523    10.36834151
 H     45  42  41     2.070563556914    90.32500507   250.95775914
 H     45  42  41     2.064414336890    95.79944503   142.00340132
 H     46  45  42     2.071649682104   108.81130739   122.21149324
 H     42  41  26     2.072524927355   107.13883166   296.96579274
 H     47  46  45     1.852831059519   108.54203529    99.77177344
 H     41  26  25     1.921247365366   118.09497399   335.28910179
 N     43  42  41     2.532233297625   120.00016433   180.00034291
 C     55  43  42     2.756486177970   120.00004013   179.98980844
 C     56  55  43     2.905051409054   106.45657995   179.99983534
 O     57  56  55     2.323039444293   123.24064406     0.00000000
 C     56  55  43     2.900452393964   110.55680505    58.73952477
 C     59  56  55     2.886353638043   112.47001485   194.84529560
 S     60  59  56     3.442840813011   110.02022034   177.39333223
 C     61  60  59     3.417605135791    98.71469325   183.97750904
 H     56  55  43     2.072114361666   108.15566846   297.31547737
 H     59  56  55     2.076110574527   109.55093950    72.15275649
 H     59  56  55     2.075287562932   108.95784425   315.82423577
 H     60  59  56     2.069190824127   110.08784702    57.40845313
 H     60  59  56     2.065162775736   111.01883157   296.83783751
 H     62  61  60     2.065570120101   110.41132574   300.09219765
 H     62  61  60     2.065833363301   109.24850643   180.77177461
 H     62  61  60     2.065659725243   110.33956187    61.53807295
 H     55  43  42     1.920368649287   115.97114788   330.91467675
 N     57  56  55     2.532227222008   120.00044717   180.00001358
 C     72  57  56     2.767005546956   120.00056390   179.98975984
 C     73  72  57     2.912805343844   105.98616252   179.99996077
 O     74  73  72     2.324991805853   122.91926018     0.00000000
 C     73  72  57     2.887690530535   111.19060840    59.38428016
 C     76  73  72     2.836828921857   111.33860474   198.32953993
 O     77  76  73     2.306874452874   127.17087238   352.12470706
 O     77  76  73     2.544814885401   112.07164814   174.51876114
 H     73  72  57     2.072429631519   107.62909083   296.34994387
 H     76  73  72     2.071028571559   110.92871789    77.28665808
 H     76  73  72     2.071470560517   110.28703578   317.13108538
 H     72  57  56     1.923088273712   121.56870942   346.72623394
 N     74  73  72     2.532219279275   120.00031857   180.00001390
 C     84  74  73     2.759484435140   120.00023304   179.98996086
 C     85  84  74     2.911681035541   106.65175309   180.00007768
 O     86  85  84     2.324141421261   123.12743041     0.00000000
 C     85  84  74     2.931202691696   111.77416838    54.93151660
 C     88  85  84     2.915319375159   111.72143504   186.89099135
 C     89  88  85     2.878997980732   113.43872561   165.20817183
 H     85  84  74     2.074399127043   107.02586207   295.38674183
 C     88  85  84     2.901322457055   112.20070345    61.00941290
 H     89  88  85     2.072416364671   109.41594100    44.73469242
 H     89  88  85     2.071215799668   110.38342350   287.08123429
 H     90  89  88     2.066401370607   111.76167470    64.24259030
 H     90  89  88     2.068251712168   110.99818938   302.91896267
 H     90  89  88     2.069118084515   109.93973008   183.55469055
 H     84  74  73     1.920296044623   117.90031686   334.24385951
 H     88  85  84     2.076560398381   107.04815369   304.18380071
 H     92  88  85     2.067996260705   111.11679507   187.81350421
 H     92  88  85     2.068531723172   111.57160063    67.46811722
 H     92  88  85     2.068855578164   111.33353885   306.58920407
 N     86  85  84     2.532241621149   119.99957373   180.00005832
 C    103  86  85     2.759481142674   119.99933673   179.98987626
 C    104 103  86     2.911681725855   106.65125153   179.99980306
 O    105 104 103     2.324138889937   123.12793401     0.00000000
 C    104 103  86     2.931200989436   111.77430309    54.93195192
 C    107 104 103     2.915328195506   111.72140802   186.89022278
 C    108 107 104     2.879003283992   113.43858828   165.20769151
 H    104 103  86     2.074374197342   107.02641643   295.38613618
 C    107 104 103     2.901320946936   112.20087234    61.00901772
 H    108 107 104     2.072410102423   109.41566268    44.73428865
 H    108 107 104     2.071204366092   110.38376354   287.08093142
 H    109 108 107     2.066409943800   111.76139379    64.24323075
 H    109 108 107     2.068240796854   110.99803838   302.91907109
 H    109 108 107     2.069123675778   109.93904688   183.55478956
 H    103  86  85     1.920306016467   117.90008403   334.24321022
 H    107 104 103     2.076560348252   107.04829874   304.18272147
 H    111 107 104     2.068006122744   111.11704030   187.81360817
 H    111 107 104     2.068526214469   111.57202698    67.46846199
 H    111 107 104     2.068869007401   111.33337413   306.58866245
 N    105 104 103     2.532242354191   120.00027135   179.99999266
 C    122 105 104     2.762135040729   120.00053122   179.99021267
 C    123 122 105     2.906730275913   106.65258768   180.00019886
 O    124 123 122     2.325497291058   122.92273094     0.00000000
 C    123 122 105     2.906018483268   111.27450757    58.72409716
 H    126 123 122     2.075323200528   110.55386194   322.22052391
 H    126 123 122     2.075215130460   110.30989450    78.16515172
 C    126 123 122     2.856445293806   113.22151284   201.65949546
 C    129 126 123     2.648212082777   120.85699430   256.41695617
 H    130 129 126     2.056347112635   120.64155702   358.85435405
 C    130 129 126     2.636710740961   120.28183257   178.62981630
 H    132 130 129     2.052942418500   120.29749867   180.17433499
 C    132 130 129     2.626287432074   119.75814610     0.60241529
 C    134 132 130     2.627508613401   120.85021231   359.89589638
 H    135 134 132     2.051471901858   121.36526567   179.60884041
 C    135 134 132     2.638260085028   119.42157362   359.70271206
 H    137 135 134     2.059748083528   119.32905191   179.83448393
 O    134 132 130     2.576094375979   117.73432296   179.84480814
 H    139 134 132     1.835823624021   108.54613803   183.56850239
 H    123 122 105     2.072897402817   107.37520457   296.22018871
 H    122 105 104     1.921428441993   120.29808989   342.07407876
 N    124 123 122     2.532223405948   119.99965870   180.00007362
 C    143 124 123     2.767023579383   119.99993764   179.98984706
 C    144 143 124     2.912806301892   105.98597293   179.99991414
 O    145 144 143     2.325010771038   122.91927999     0.00000000
 C    144 143 124     2.887689547459   111.19045278    59.38456009
 C    147 144 143     2.836838788682   111.33811783   198.32954373
 O    148 147 144     2.306885701617   127.17071689   352.12467472
 O    148 147 144     2.544825374198   112.07148533   174.51836308
 H    144 143 124     2.072434967183   107.62891499   296.34969871
 H    147 144 143     2.071021449603   110.92915504    77.28698117
 H    147 144 143     2.071470084369   110.28638121   317.13034239
 H    143 124 123     1.923078178602   121.56935349   346.72563510
 O    145 144 143     2.553008598747   116.74239612   179.99978628

---------------------
BASIS SET INFORMATION
---------------------
There are 5 groups of distinct atoms

 Group   1 Type N   : 6s3p contracted to 2s1p pattern {33/3}
 Group   2 Type C   : 6s3p contracted to 2s1p pattern {33/3}
 Group   3 Type O   : 6s3p contracted to 2s1p pattern {33/3}
 Group   4 Type H   : 3s contracted to 1s pattern {3}
 Group   5 Type S   : 9s6p1d contracted to 3s2p1d pattern {333/33/1}

Atom   0N    basis set group =>   1
Atom   1C    basis set group =>   2
Atom   2C    basis set group =>   2
Atom   3O    basis set group =>   3
Atom   4C    basis set group =>   2
Atom   5H    basis set group =>   4
Atom   6H    basis set group =>   4
Atom   7C    basis set group =>   2
Atom   8C    basis set group =>   2
Atom   9H    basis set group =>   4
Atom  10C    basis set group =>   2
Atom  11H    basis set group =>   4
Atom  12C    basis set group =>   2
Atom  13C    basis set group =>   2
Atom  14H    basis set group =>   4
Atom  15C    basis set group =>   2
Atom  16H    basis set group =>   4
Atom  17O    basis set group =>   3
Atom  18H    basis set group =>   4
Atom  19H    basis set group =>   4
Atom  20H    basis set group =>   4
Atom  21H    basis set group =>   4
Atom  22H    basis set group =>   4
Atom  23N    basis set group =>   1
Atom  24C    basis set group =>   2
Atom  25C    basis set group =>   2
Atom  26O    basis set group =>   3
Atom  27C    basis set group =>   2
Atom  28C    basis set group =>   2
Atom  29S    basis set group =>   5
Atom  30C    basis set group =>   2
Atom  31H    basis set group =>   4
Atom  32H    basis set group =>   4
Atom  33H    basis set group =>   4
Atom  34H    basis set group =>   4
Atom  35H    basis set group =>   4
Atom  36H    basis set group =>   4
Atom  37H    basis set group =>   4
Atom  38H    basis set group =>   4
Atom  39H    basis set group =>   4
Atom  40N    basis set group =>   1
Atom  41C    basis set group =>   2
Atom  42C    basis set group =>   2
Atom  43O    basis set group =>   3
Atom  44C    basis set group =>   2
Atom  45C    basis set group =>   2
Atom  46O    basis set group =>   3
Atom  47H    basis set group =>   4
Atom  48H    basis set group =>   4
Atom  49H    basis set group =>   4
Atom  50H    basis set group =>   4
Atom  51H    basis set group =>   4
Atom  52H    basis set group =>   4
Atom  53H    basis set group =>   4
Atom  54N    basis set group =>   1
Atom  55C    basis set group =>   2
Atom  56C    basis set group =>   2
Atom  57O    basis set group =>   3
Atom  58C    basis set group =>   2
Atom  59C    basis set group =>   2
Atom  60S    basis set group =>   5
Atom  61C    basis set group =>   2
Atom  62H    basis set group =>   4
Atom  63H    basis set group =>   4
Atom  64H    basis set group =>   4
Atom  65H    basis set group =>   4
Atom  66H    basis set group =>   4
Atom  67H    basis set group =>   4
Atom  68H    basis set group =>   4
Atom  69H    basis set group =>   4
Atom  70H    basis set group =>   4
Atom  71N    basis set group =>   1
Atom  72C    basis set group =>   2
Atom  73C    basis set group =>   2
Atom  74O    basis set group =>   3
Atom  75C    basis set group =>   2
Atom  76C    basis set group =>   2
Atom  77O    basis set group =>   3
Atom  78O    basis set group =>   3
Atom  79H    basis set group =>   4
Atom  80H    basis set group =>   4
Atom  81H    basis set group =>   4
Atom  82H    basis set group =>   4
Atom  83N    basis set group =>   1
Atom  84C    basis set group =>   2
Atom  85C    basis set group =>   2
Atom  86O    basis set group =>   3
Atom  87C    basis set group =>   2
Atom  88C    basis set group =>   2
Atom  89C    basis set group =>   2
Atom  90H    basis set group =>   4
Atom  91C    basis set group =>   2
Atom  92H    basis set group =>   4
Atom  93H    basis set group =>   4
Atom  94H    basis set group =>   4
Atom  95H    basis set group =>   4
Atom  96H    basis set group =>   4
Atom  97H    basis set group =>   4
Atom  98H    basis set group =>   4
Atom  99H    basis set group =>   4
Atom 100H    basis set group =>   4
Atom 101H    basis set group =>   4
Atom 102N    basis set group =>   1
Atom 103C    basis set group =>   2
Atom 104C    basis set group =>   2
Atom 105O    basis set group =>   3
Atom 106C    basis set group =>   2
Atom 107C    basis set group =>   2
Atom 108C    basis set group =>   2
Atom 109H    basis set group =>   4
Atom 110C    basis set group =>   2
Atom 111H    basis set group =>   4
Atom 112H    basis set group =>   4
Atom 113H    basis set group =>   4
Atom 114H    basis set group =>   4
Atom 115H    basis set group =>   4
Atom 116H    basis set group =>   4
Atom 117H    basis set group =>   4
Atom 118H    basis set group =>   4
Atom 119H    basis set group =>   4
Atom 120H    basis set group =>   4
Atom 121N    basis set group =>   1
Atom 122C    basis set group =>   2
Atom 123C    basis set group =>   2
Atom 124O    basis set group =>   3
Atom 125C    basis set group =>   2
Atom 126H    basis set group =>   4
Atom 127H    basis set group =>   4
Atom 128C    basis set group =>   2
Atom 129C    basis set group =>   2
Atom 130H    basis set group =>   4
Atom 131C    basis set group =>   2
Atom 132H    basis set group =>   4
Atom 133C    basis set group =>   2
Atom 134C    basis set group =>   2
Atom 135H    basis set group =>   4
Atom 136C    basis set group =>   2
Atom 137H    basis set group =>   4
Atom 138O    basis set group =>   3
Atom 139H    basis set group =>   4
Atom 140H    basis set group =>   4
Atom 141H    basis set group =>   4
Atom 142N    basis set group =>   1
Atom 143C    basis set group =>   2
Atom 144C    basis set group =>   2
Atom 145O    basis set group =>   3
Atom 146C    basis set group =>   2
Atom 147C    basis set group =>   2
Atom 148O    basis set group =>   3
Atom 149O    basis set group =>   3
Atom 150H    basis set group =>   4
Atom 151H    basis set group =>   4
Atom 152H    basis set group =>   4
Atom 153H    basis set group =>   4
Atom 154O    basis set group =>   3
--------------------------------------------------------------------------
WARNING: No preset parameters were found for the device that Open MPI
detected:

  Local host:            c0711a-s13
  Device name:           mlx5_0
  Device vendor ID:      0x02c9
  Device vendor part ID: 4123

Default device parameters will be used, which may result in lower
performance.  You can edit any of the files specified by the
btl_openib_device_param_files MCA parameter to set values for your
device.

NOTE: You can turn off this warning by setting the MCA parameter
      btl_openib_warn_no_device_params_found to 0.
--------------------------------------------------------------------------
--------------------------------------------------------------------------
WARNING: There was an error initializing an OpenFabrics device.

  Local host:   c0711a-s13
  Local device: mlx5_0
--------------------------------------------------------------------------


           ************************************************************
           *        Program running with 15 parallel MPI-processes    *
           *              working on a common directory               *
           ************************************************************
------------------------------------------------------------------------------
                           ORCA GTO INTEGRAL CALCULATION
------------------------------------------------------------------------------

                         BASIS SET STATISTICS AND STARTUP INFO

 # of primitive gaussian shells          ...  959
 # of primitive gaussian functions       ... 1459
 # of contracted shells                  ...  321
 # of contracted basis functions         ...  493
 Highest angular momentum                ...    2
 Maximum contraction depth               ...    3
 Integral package used                   ... LIBINT
 Integral threshhold            Thresh   ...  1.000e-10
 Primitive cut-off              TCut     ...  1.000e-11


------------------------------ INTEGRAL EVALUATION ----------------------------


 * One electron integrals 
 Pre-screening matrix                    ... done
 Shell pair data                         ... done (   0.007 sec)

[c0711a-s13.ufhpc:08103] 14 more processes have sent help message help-mpi-btl-openib.txt / no device params found
[c0711a-s13.ufhpc:08103] Set MCA parameter "orte_base_help_aggregate" to 0 to see all help / error messages
[c0711a-s13.ufhpc:08103] 14 more processes have sent help message help-mpi-btl-openib.txt / error in device init
--------------------------------------------------------------------------
WARNING: No preset parameters were found for the device that Open MPI
detected:

  Local host:            c0711a-s13
  Device name:           mlx5_0
  Device vendor ID:      0x02c9
  Device vendor part ID: 4123

Default device parameters will be used, which may result in lower
performance.  You can edit any of the files specified by the
btl_openib_device_param_files MCA parameter to set values for your
device.

NOTE: You can turn off this warning by setting the MCA parameter
      btl_openib_warn_no_device_params_found to 0.
--------------------------------------------------------------------------
--------------------------------------------------------------------------
WARNING: There was an error initializing an OpenFabrics device.

  Local host:   c0711a-s13
  Local device: mlx5_0
--------------------------------------------------------------------------


           ************************************************************
           *        Program running with 15 parallel MPI-processes    *
           *              working on a common directory               *
           ************************************************************
-------------------------------------------------------------------------------
                                 ORCA SCF
-------------------------------------------------------------------------------

------------
SCF SETTINGS
------------
Hamiltonian:
 Ab initio Hamiltonian  Method          .... Hartree-Fock(GTOs)


General Settings:
 Integral files         IntName         .... YMTMDIIYD
 Hartree-Fock type      HFTyp           .... RHF
 Total Charge           Charge          ....    0
 Multiplicity           Mult            ....    1
 Number of Electrons    NEL             ....  618
 Basis Dimension        Dim             ....  493
 Nuclear Repulsion      ENuc            ....  13215.1671470879 Eh

Convergence Acceleration:
 DIIS                   CNVDIIS         .... off
 Newton-Raphson         CNVNR           .... off
 SOSCF                  CNVSOSCF        .... off
 Level Shifting         CNVShift        .... off
 Zerner damping         CNVZerner       .... off
 Static damping         CNVDamp         .... off
 Fernandez-Rico         CNVRico         .... off

SCF Procedure:
 Maximum # iterations   MaxIter         .... 10000
 SCF integral mode      SCFMode         .... Direct
   Integral package                     .... LIBINT
 Reset frequency        DirectResetFreq ....    20
 Integral Threshold     Thresh          ....  1.000e-10 Eh
 Primitive CutOff       TCut            ....  1.000e-11 Eh

Convergence Tolerance:
 Convergence Check Mode ConvCheckMode   .... All-Criteria
 Convergence forced     ConvForced      .... 0
 Energy Change          TolE            ....  1.000e-06 Eh
 Max Density Change     TolMaxP         ....  1.000e-05
 RMS Density Change     TolRMSP         ....  1.000e-06


Diagonalization of the overlap matrix:
Smallest eigenvalue                        ... 1.716e-01
Time for diagonalization                   ...    0.455 sec
Threshold for overlap eigenvalues          ... 1.000e-08
Number of eigenvalues below threshold      ... 0
Time for construction of square roots      ...    0.081 sec
Total time needed                          ...    0.536 sec

--------------------------------
INITIAL GUESS: MINIMAL BASIS EHT
--------------------------------
The minimal basis has 483 functions
EHT matrix was diagonalized
Basis set overlap was calculated now projecting the orbitals
Using GuessMode=FMatrix for the initial guess
C*T matrix was formed
Effective Fockian was calculated
Effective Fockian was diagonalized
Initial density was built
                      ------------------
                      INITIAL GUESS DONE
                      ------------------

--------------------
CPCM SOLVATION MODEL
--------------------
CPCM parameters:
  Epsilon                                         ...      78.3550
  Refrac                                          ...       1.3300
  Rsolv                                           ...       1.3000
  Surface type                                    ...    GEPOL SES
  Epsilon function type                           ...         CPCM
Solvent:                                     ... WATER
SMD-CDS solvent descriptors:
  Soln                                       ...    1.3328
  Soln25                                     ...    1.3323
  Sola                                       ...    0.0000
  Solb                                       ...    0.0000
  Solg                                       ...    0.0000
  Solc                                       ...    0.0000
  Solh                                       ...    0.0000
Radii:
 Radius for N  used is    3.5716 Bohr (=   1.8900 Ang.)
 Radius for C  used is    3.4960 Bohr (=   1.8500 Ang.)
 Radius for O  used is    2.8724 Bohr (=   1.5200 Ang.)
 Radius for H  used is    2.2677 Bohr (=   1.2000 Ang.)
 Radius for S  used is    4.7054 Bohr (=   2.4900 Ang.)
Calculating surface                               ...        done! (  0.6s)
GEPOL surface points                              ...         7272
GEPOL Volume                                      ...    8124.6376
GEPOL Surface-area                                ...    3942.5436
Calculating surface distance matrix               ...        done! (  0.2s)
Performing Cholesky decomposition & store         ...        [c0711a-s13.ufhpc:08437] 14 more processes have sent help message help-mpi-btl-openib.txt / no device params found
[c0711a-s13.ufhpc:08437] Set MCA parameter "orte_base_help_aggregate" to 0 to see all help / error messages
[c0711a-s13.ufhpc:08437] 14 more processes have sent help message help-mpi-btl-openib.txt / error in device init
done! (  3.0s)
Overall time for CPCM initialization              ...                 3.9s
--------------
SCF ITERATIONS
--------------
ITER       Energy         Delta-E        Max-DP      RMS-DP      [F,P]   Gradient Norm
               ***  Starting incremental Fock matrix formation  ***
                             ****Resetting KDIIS****
                             ****Turning on KDIIS(Cayley)****
  0  -4534.1630480320   0.000000000000 0.05553628  0.00114488  0.7670202   0.198583546
  1  -4535.4152434483  -1.252195416321 0.09109471  0.00162089  0.6939702   0.178650923
  2  -4536.9931339630  -1.577890514650 0.16602904  0.00290423  0.5589295   0.144564156
  3  -4538.9634726831  -1.970338720116 0.25398730  0.00460378  0.3379464   0.087637117
  4  -4540.1156924818  -1.152219798682 0.03698300  0.00040028  0.0075169   0.004217593
  5  -4540.1254739628  -0.009781480971 0.02883361  0.00033366  0.0046016   0.002105578
  6  -4540.1294241926  -0.003950229881 0.03286356  0.00023236  0.0020692   0.000925556
  7  -4540.1306405075  -0.001216314808 0.01916362  0.00010880  0.0018399   0.000471639
  8  -4540.1310741740  -0.000433666582 0.08314856  0.00041320  0.0019199   0.000408869
  9  -4540.1296576743   0.001416499722 0.06084651  0.00027831  0.0015194   0.000496816
 10  -4540.1291979621   0.000459712202 0.01818194  0.00011559  0.0018865   0.000473196
 11  -4540.1293485127  -0.000150550585 0.00964356  0.00008399  0.0014724   0.000266467
 12  -4540.1291153207   0.000233191956 0.01058648  0.00005668  0.0017360   0.000349069
 13  -4540.1290497068   0.000065613896 0.01917671  0.00008963  0.0010515   0.000313537
 14  -4540.1289925649   0.000057141961 0.02173608  0.00011178  0.0009625   0.000287758
 15  -4540.1290124643  -0.000019899464 0.02190572  0.00012850  0.0008314   0.000245332
 16  -4540.1291959584  -0.000183494079 0.00437314  0.00004783  0.0008708   0.000208935
 17  -4540.1292916564  -0.000095697976 0.01080956  0.00009669  0.0010075   0.000189775
 18  -4540.1291103976   0.000181258793 0.00658510  0.00004840  0.0008328   0.000196975
 19  -4540.1290619221   0.000048475460 0.00639180  0.00004528  0.0008749   0.000185646
               *** Restarting incremental Fock matrix formation ***
                             ****Resetting KDIIS****
 20  -4540.1291236648  -0.000061742624 0.00061863  0.00000673  0.0008766   0.000171543
 21  -4540.1291357687  -0.000012103958 0.00112481  0.00001228  0.0008779   0.000168337
Warning: badly conditioned DIIS matrix, 1 vectors out of 3 destroyed
 22  -4540.1291576772  -0.000021908443 0.00177720  0.00001942  0.0008799   0.000163569
Warning: badly conditioned DIIS matrix, 1 vectors out of 3 destroyed
 23  -4540.1291919233  -0.000034246077 0.00276492  0.00003047  0.0008830   0.000158748
 24  -4540.1292447475  -0.000052824214 0.00462605  0.00004243  0.0008863   0.000158486
 25  -4540.1291733098   0.000071437692 0.01127744  0.00009202  0.0008686   0.000163542
 26  -4540.1292859320  -0.000112622251 0.00015886  0.00000165  0.0010311   0.000173912
 27  -4540.1292833198   0.000002612246 0.01045057  0.00011063  0.0010313   0.000174370
 28  -4540.1291067834   0.000176536378 0.00144793  0.00000969  0.0009333   0.000164815
 29  -4540.1291145225  -0.000007739085 0.00347196  0.00002895  0.0009298   0.000163960
 30  -4540.1291565204  -0.000041997881 0.00644055  0.00005912  0.0009329   0.000160315
 31  -4540.1290766526   0.000079867777 0.00706849  0.00006001  0.0009364   0.000157055
 32  -4540.1289826092   0.000094043354 0.00983233  0.00006307  0.0009181   0.000160371
 33  -4540.1289280427   0.000054566496 0.00633736  0.00003110  0.0009566   0.000151031
                          ***Energy convergence achieved***
 34  -4540.1289284429  -0.000000400192 0.02115805  0.00020484  0.0009546   0.000145219
 35  -4540.1292338569  -0.000305413967 0.01007836  0.00010283  0.0009555   0.000154988
 36  -4540.1293819852  -0.000148128271 0.00512272  0.00004759  0.0009059   0.000147298
 37  -4540.1294423805  -0.000060395290 0.00444063  0.00004575  0.0008817   0.000141558
 38  -4540.1293904566   0.000051923889 0.01922849  0.00016417  0.0009052   0.000131018
 39  -4540.1295802194  -0.000189762814 0.01001343  0.00010815  0.0008801   0.000139602
               *** Restarting incremental Fock matrix formation ***
                             ****Resetting KDIIS****
 40  -4540.1297117132  -0.000131493861 0.00082441  0.00000596  0.0007828   0.000171440
 41  -4540.1297210309  -0.000009317668 0.00159596  0.00001355  0.0007894   0.000165096
 42  -4540.1297417765  -0.000020745561 0.00563489  0.00006208  0.0007981   0.000157124
 43  -4540.1296554760   0.000086300479 0.00825158  0.00009295  0.0008285   0.000147763
 44  -4540.1295302497   0.000125226310 0.00438323  0.00004618  0.0008664   0.000164053
 45  -4540.1295666567  -0.000036407009 0.00660170  0.00006107  0.0012165   0.000234728
 46  -4540.1296468686  -0.000080211883 0.00113226  0.00001194  0.0012364   0.000254248
 47  -4540.1296571836  -0.000010315026 0.00505409  0.00004505  0.0011443   0.000205352
 48  -4540.1297180465  -0.000060862918 0.00668356  0.00007077  0.0008931   0.000161454
 49  -4540.1296208001   0.000097246463 0.00110891  0.00001076  0.0009746   0.000179625
 50  -4540.1296337966  -0.000012996508 0.01892393  0.00020621  0.0009791   0.000182604
 51  -4540.1299297036  -0.000295907073 0.02486278  0.00024722  0.0008308   0.000173314
 52  -4540.1295736242   0.000356079403 0.01626964  0.00016383  0.0008537   0.000175294
 53  -4540.1293434645   0.000230159770 0.01287229  0.00012656  0.0008472   0.000181950
 54  -4540.1291880367   0.000155427737 0.00644993  0.00006504  0.0009297   0.000175246
 55  -4540.1292753890  -0.000087352279 0.00788216  0.00007309  0.0008833   0.000174932
 56  -4540.1293343768  -0.000058987760 0.01148931  0.00012443  0.0007575   0.000214353
 57  -4540.1295206977  -0.000186320956 0.02279474  0.00024845  0.0008308   0.000157442
 58  -4540.1291806854   0.000340012281 0.01533547  0.00015426  0.0009128   0.000172324
 59  -4540.1289663876   0.000214297848 0.00189114  0.00001200  0.0009385   0.000192765
               *** Restarting incremental Fock matrix formation ***
                             ****Resetting KDIIS****
 60  -4540.1289555674   0.000010820227 0.00056766  0.00000562  0.0009430   0.000187300
 61  -4540.1289648708  -0.000009303424 0.00121239  0.00001200  0.0009426   0.000181489
 62  -4540.1289841993  -0.000019328458 0.00205352  0.00002034  0.0009413   0.000171285
 63  -4540.1290160967  -0.000031897411 0.00831499  0.00008796  0.0009389   0.000156670
 64  -4540.1288988695   0.000117227115 0.00160503  0.00001459  0.0009198   0.000165199
 65  -4540.1289115529  -0.000012683323 0.02407148  0.00022382  0.0009384   0.000148654
 66  -4540.1285763490   0.000335203919 0.03790045  0.00036137  0.0010149   0.000216947
 67  -4540.1290997262  -0.000523377284 0.01048368  0.00010960  0.0009278   0.000168785
 68  -4540.1292543188  -0.000154592541 0.00462560  0.00004445  0.0009041   0.000151055
 69  -4540.1292921163  -0.000037797498 0.02362830  0.00022751  0.0007790   0.000184062
 70  -4540.1295915604  -0.000299444107 0.00246696  0.00002386  0.0006533   0.000192368
 71  -4540.1295965054  -0.000004945049 0.00803665  0.00008852  0.0006827   0.000183032
 72  -4540.1294879136   0.000108591809 0.01297477  0.00013355  0.0008421   0.000136142
 73  -4540.1296658582  -0.000177944552 0.01614733  0.00017270  0.0008630   0.000138508
 74  -4540.1294295197   0.000236338474 0.01188666  0.00011860  0.0008871   0.000138179
 75  -4540.1295890247  -0.000159504976 0.03534608  0.00031724  0.0008321   0.000146204
 76  -4540.1300303053  -0.000441280634 0.01000105  0.00010478  0.0007457   0.000184613
 77  -4540.1301832828  -0.000152977442 0.01408425  0.00012004  0.0007250   0.000162500
 78  -4540.1300176182   0.000165664560 0.00523786  0.00005150  0.0007416   0.000152705
 79  -4540.1299482527   0.000069365475 0.00587785  0.00004553  0.0007673   0.000144832
               *** Restarting incremental Fock matrix formation ***
                             ****Resetting KDIIS****
 80  -4540.1299598679  -0.000011615211 0.00105017  0.00000624  0.0008433   0.000134520
 81  -4540.1299684984  -0.000008630488 0.00247797  0.00002213  0.0008356   0.000135110
 82  -4540.1300003894  -0.000031890986 0.00864832  0.00007289  0.0008241   0.000136225
 83  -4540.1301066174  -0.000106228043 0.02306202  0.00020960  0.0008123   0.000140407
 84  -4540.1298136939   0.000292923499 0.00983272  0.00008184  0.0007831   0.000166728
 85  -4540.1299315835  -0.000117889538 0.03025239  0.00028174  0.0008090   0.000150388
 86  -4540.1295310075   0.000400576013 0.01275933  0.00011382  0.0006881   0.000205760
 87  -4540.1294062513   0.000124756220 0.01461160  0.00014205  0.0008857   0.000140290
 88  -4540.1291990966   0.000207154652 0.02106621  0.00019762  0.0006761   0.000209861
 89  -4540.1294645535  -0.000265456922 0.01109254  0.00010484  0.0007527   0.000159906
 90  -4540.1293352656   0.000129287913 0.00869232  0.00008454  0.0008281   0.000164976
 91  -4540.1294452840  -0.000110018359 0.01898994  0.00019311  0.0008283   0.000143173
 92  -4540.1291897652   0.000255518727 0.00390380  0.00003241  0.0007902   0.000165918
 93  -4540.1291677938   0.000021971416 0.01081347  0.00010320  0.0008332   0.000154165
 94  -4540.1292978767  -0.000130082848 0.00281294  0.00002811  0.0008254   0.000139772
 95  -4540.1292718543   0.000026022372 0.00270281  0.00002595  0.0007946   0.000133414
 96  -4540.1292458481   0.000026006212 0.00359694  0.00003697  0.0008172   0.000143725
 97  -4540.1292911747  -0.000045326649 0.01148222  0.00011871  0.0008110   0.000139675
 98  -4540.1291309967   0.000160178040 0.00679786  0.00006098  0.0008048   0.000144341
 99  -4540.1290564299   0.000074566773 0.02722846  0.00026775  0.0008317   0.000142987
               *** Restarting incremental Fock matrix formation ***
                             ****Resetting KDIIS****
100  -4540.1287112909   0.000345139073 0.00056526  0.00000535  0.0008283   0.000174544
101  -4540.1287194807  -0.000008189872 0.00187340  0.00001721  0.0008331   0.000168400
102  -4540.1287444991  -0.000025018419 0.00235605  0.00002168  0.0008379   0.000157333
103  -4540.1287757321  -0.000031232918 0.02385616  0.00022778  0.0008481   0.000142196
104  -4540.1290766827  -0.000300950680 0.00106060  0.00000961  0.0007689   0.000144143
[...]
5434  -4540.1302009106  -0.000045395236 0.10151561  0.00054298  0.0011748   0.000446831
5435  -4540.1295398968   0.000661013762 0.15635947  0.00093441  0.0008641   0.000344754
5436  -4540.1285291172   0.001010779632 0.05410826  0.00034761  0.0007353   0.000269925
5437  -4540.1289125830  -0.000383465839 0.00917568  0.00006560  0.0006222   0.000225643
5438  -4540.1288660775   0.000046505557 0.02488003  0.00014733  0.0006166   0.000166153
5439  -4540.1290297500  -0.000163672520 0.03334526  0.00020171  0.0007653   0.000127847
               *** Restarting incremental Fock matrix formation ***
                             ****Resetting KDIIS****
5440  -4540.1288167329   0.000213017092 0.00050888  0.00000425  0.0007076   0.000145946
5441  -4540.1288219996  -0.000005266711 0.00114779  0.00000568  0.0007073   0.000142756
5442  -4540.1288174576   0.000004541982 0.00335004  0.00002348  0.0007048   0.000135673
5443  -4540.1287943242   0.000023133390 0.00334485  0.00002674  0.0007047   0.000131049
5444  -4540.1287843838   0.000009940453 0.00595045  0.00003864  0.0007122   0.000119964
5445  -4540.1287417684   0.000042615398 0.01032067  0.00006848  0.0007249   0.000123248
5446  -4540.1288170907  -0.000075322317 0.00992253  0.00006165  0.0007313   0.000119521
5447  -4540.1288784575  -0.000061366758 0.00935300  0.00006287  0.0007517   0.000134310
5448  -4540.1289444731  -0.000066015684 0.00132359  0.00000845  0.0007329   0.000122365
5449  -4540.1289527970  -0.000008323870 0.03245401  0.00020861  0.0007338   0.000124944
5450  -4540.1287308662   0.000221930771 0.01114732  0.00007185  0.0007101   0.000122603
5451  -4540.1286536861   0.000077180110 0.06340994  0.00039921  0.0007321   0.000123094
5452  -4540.1290759253  -0.000422239168 0.04336632  0.00024332  0.0006467   0.000146598
5453  -4540.1293387823  -0.000262857043 0.00266687  0.00002313  0.0006610   0.000173093
5454  -4540.1293247999   0.000013982457 0.00466955  0.00003202  0.0006436   0.000171341
5455  -4540.1293587541  -0.000033954173 0.05012219  0.00028663  0.0006290   0.000165752
5456  -4540.1290464062   0.000312347868 0.03534533  0.00021599  0.0005903   0.000168169
5457  -4540.1288224881   0.000223918115 0.04109896  0.00024949  0.0006304   0.000146536
5458  -4540.1290885363  -0.000266048253 0.00984142  0.00007267  0.0006605   0.000132878
5459  -4540.1291564383  -0.000067901992 0.00337375  0.00002640  0.0008695   0.000111053
               *** Restarting incremental Fock matrix formation ***
                             ****Resetting KDIIS****
5460  -4540.1291486855   0.000007752855 0.00096357  0.00000527  0.0009451   0.000134957
5461  -4540.1291550281  -0.000006342631 0.00343409  0.00002182  0.0009162   0.000125500
5462  -4540.1291795256  -0.000024497545 0.00211040  0.00001655  0.0008929   0.000120392
5463  -4540.1291978244  -0.000018298787 0.00514170  0.00004326  0.0008508   0.000116781
5464  -4540.1291601635   0.000037660900 0.01782222  0.00010324  0.0008089   0.000130974
5465  -4540.1292728356  -0.000112672104 0.04379469  0.00024122  0.0007774   0.000115167
5466  -4540.1295386329  -0.000265797288 0.01992334  0.00011483  0.0006468   0.000169472
5467  -4540.1294169506   0.000121682343 0.01128986  0.00006904  0.0009724   0.000139201
5468  -4540.1293357387   0.000081211905 0.00768056  0.00005397  0.0009583   0.000159406
5469  -4540.1293571376  -0.000021398935 0.03190812  0.00018823  0.0009099   0.000124569
5470  -4540.1291572368   0.000199900766 0.02813086  0.00015858  0.0007853   0.000153666
5471  -4540.1293276462  -0.000170409368 0.20327059  0.00128036  0.0008550   0.000153874
5472  -4540.1276367606   0.001690885606 0.01303667  0.00010682  0.0015825   0.000679283
5473  -4540.1277481054  -0.000111344833 0.03485387  0.00024566  0.0017758   0.000720338
5474  -4540.1281772827  -0.000429177262 0.02224891  0.00015531  0.0012700   0.000545354
5475  -4540.1284059803  -0.000228697582 0.13692721  0.00080583  0.0009937   0.000446252
5476  -4540.1293522928  -0.000946312555 0.02515035  0.00014657  0.0006572   0.000197608
5477  -4540.1295395423  -0.000187249463 0.03511136  0.00018742  0.0007639   0.000140069
5478  -4540.1293071994   0.000232342877 0.03832194  0.00021005  0.0008184   0.000156248
5479  -4540.1294656498  -0.000158450395 0.06047924  0.00033300  0.0008696   0.000328052
               *** Restarting incremental Fock matrix formation ***
                             ****Resetting KDIIS****
5480  -4540.1291238107   0.000341839076 0.00117625  0.00000543  0.0006657   0.000267263
5481  -4540.1291334384  -0.000009627627 0.00205241  0.00001196  0.0005852   0.000248645
5482  -4540.1291534130  -0.000019974683 0.00189852  0.00001500  0.0005429   0.000219059
5483  -4540.1291483128   0.000005100228 0.00363760  0.00002855  0.0006384   0.000175946
5484  -4540.1291296057   0.000018707133 0.00856617  0.00005289  0.0007869   0.000134998
5485  -4540.1291883332  -0.000058727525 0.00439471  0.00002523  0.0008377   0.000127860
5486  -4540.1292159593  -0.000027626121 0.01041372  0.00005801  0.0008470   0.000127255
5487  -4540.1292772970  -0.000061337644 0.01652768  0.00010376  0.0008497   0.000141952
5488  -4540.1293851896  -0.000107892620 0.04246537  0.00024876  0.0007725   0.000144470
5489  -4540.1291149257   0.000270263899 0.03918218  0.00022892  0.0007474   0.000137277
5490  -4540.1293634518  -0.000248526140 0.09339457  0.00056527  0.0007645   0.000138842
5491  -4540.1287447696   0.000618682230 0.05698418  0.00040780  0.0007065   0.000192753
5492  -4540.1282403417   0.000504427918 0.01592755  0.00011742  0.0011259   0.000386776
5493  -4540.1284148074  -0.000174465750 0.01422084  0.00010847  0.0008418   0.000278359
5494  -4540.1285590946  -0.000144287111 0.02181751  0.00014881  0.0006988   0.000197677
5495  -4540.1283583461   0.000200748425 0.04097875  0.00028044  0.0008359   0.000309572
5496  -4540.1287077095  -0.000349363399 0.04209717  0.00028854  0.0007526   0.000140243
5497  -4540.1283694918   0.000338217764 0.06547238  0.00044104  0.0008231   0.000223826
5498  -4540.1288793794  -0.000509887641 0.00976710  0.00007391  0.0007116   0.000126456
5499  -4540.1288987597  -0.000019380344 0.03003497  0.00016742  0.0006141   0.000217964
               *** Restarting incremental Fock matrix formation ***
                             ****Resetting KDIIS****
5500  -4540.1290807105  -0.000181950782 0.00033658  0.00000390  0.0006167   0.000192290
5501  -4540.1290865197  -0.000005809202 0.00058398  0.00000402  0.0005919   0.000181803
5502  -4540.1290920644  -0.000005544714 0.00422689  0.00002780  0.0006296   0.000160129
5503  -4540.1290683860   0.000023678486 0.00632865  0.00004128  0.0006943   0.000134714
5504  -4540.1290340074   0.000034378521 0.00840457  0.00005209  0.0007914   0.000121115
5505  -4540.1289797868   0.000054220660 0.04854818  0.00029483  0.0008072   0.000113999
5506  -4540.1292925955  -0.000312808755 0.02462897  0.00014730  0.0006907   0.000129523
5507  -4540.1291294073   0.000163188223 0.06709145  0.00042189  0.0005918   0.000156839
5508  -4540.1286806532   0.000448754156 0.00513060  0.00003925  0.0006264   0.000200189
5509  -4540.1286257210   0.000054932169 0.06817603  0.00049825  0.0007890   0.000294193
5510  -4540.1278682217   0.000757499298 0.13510486  0.00090078  0.0016741   0.000629401
5511  -4540.1290561075  -0.001187885860 0.14026748  0.00078854  0.0008408   0.000306161
5512  -4540.1298925843  -0.000836476759 0.07094997  0.00038802  0.0013247   0.000520165
5513  -4540.1294691296   0.000423454755 0.02861972  0.00015918  0.0009151   0.000397052
5514  -4540.1296872747  -0.000218145118 0.06387167  0.00035228  0.0007630   0.000323876
5515  -4540.1292821261   0.000405148578 0.11995747  0.00073181  0.0007566   0.000310616
5516  -4540.1284550247   0.000827101439 0.18416824  0.00107732  0.0010512   0.000395704
5517  -4540.1296626277  -0.001207603043 0.13277199  0.00070582  0.0010503   0.000402397
5518  -4540.1305040109  -0.000841383234 0.03446208  0.00018050  0.0018818   0.000700818
5519  -4540.1302567563   0.000247254671 0.21695414  0.00115840  0.0017273   0.000643043
               *** Restarting incremental Fock matrix formation ***
                             ****Resetting KDIIS****
5520  -4540.1315482834  -0.001291527091 0.00695113  0.00002847  0.0047582   0.001583191
5521  -4540.1318414725  -0.000293189156 0.00641643  0.00003570  0.0040801   0.001384005
5522  -4540.1321888490  -0.000347376523 0.01060254  0.00005306  0.0033499   0.001141205
5523  -4540.1325783958  -0.000389546753 0.01709857  0.00012536  0.0022129   0.000760455
5524  -4540.1330835590  -0.000505163219 0.04001514  0.00027721  0.0023736   0.000316411
5525  -4540.1323759110   0.000707647979 0.00594753  0.00003945  0.0022377   0.000287670
5526  -4540.1324800915  -0.000104180431 0.06578868  0.00042044  0.0022989   0.000273465
5527  -4540.1314655896   0.001014501876 0.02037914  0.00014140  0.0016508   0.000312333
5528  -4540.1312297737   0.000235815898 0.04744396  0.00028234  0.0015687   0.000278086
5529  -4540.1307885010   0.000441272631 0.03242857  0.00024505  0.0010668   0.000312468
5530  -4540.1306041608   0.000184340268 0.00585131  0.00004319  0.0009181   0.000269604
5531  -4540.1306413840  -0.000037223238 0.00452181  0.00003332  0.0009811   0.000265683
5532  -4540.1307006351  -0.000059251053 0.01344531  0.00008540  0.0010542   0.000245133
5533  -4540.1308417692  -0.000141134172 0.00505878  0.00003529  0.0010762   0.000221646
5534  -4540.1308766406  -0.000034871398 0.02430043  0.00016450  0.0011380   0.000217806
5535  -4540.1307259769   0.000150663696 0.02582144  0.00022344  0.0010399   0.000218858
5536  -4540.1305886211   0.000137355893 0.03756244  0.00023395  0.0012314   0.000227108
5537  -4540.1302429160   0.000345705069 0.02151152  0.00014424  0.0010816   0.000221822
5538  -4540.1301453270   0.000097588972 0.00485956  0.00004085  0.0009637   0.000201815
5539  -4540.1301387761   0.000006550931 0.03086854  0.00019609  0.0009975   0.000198124
               *** Restarting incremental Fock matrix formation ***
                             ****Resetting KDIIS****
5540  -4540.1298876120   0.000251164030 0.00064728  0.00000591  0.0008845   0.000222309
5541  -4540.1298983561  -0.000010744028 0.00106173  0.00000896  0.0008907   0.000214952
5542  -4540.1299144574  -0.000016101328 0.00362198  0.00002964  0.0009028   0.000202722
5543  -4540.1298730711   0.000041386349 0.00567039  0.00004818  0.0009396   0.000189727
5544  -4540.1298105714   0.000062499670 0.00985676  0.00007527  0.0009871   0.000178879
5545  -4540.1299196843  -0.000109112914 0.00765847  0.00006156  0.0009484   0.000180272
5546  -4540.1300142808  -0.000094596527 0.03119415  0.00026033  0.0009324   0.000172580
5547  -4540.1296648561   0.000349424721 0.02304393  0.00018014  0.0010118   0.000152458
5548  -4540.1299061442  -0.000241288060 0.00160032  0.00001821  0.0008914   0.000156131
5549  -4540.1299241452  -0.000018001047 0.00349125  0.00003013  0.0009010   0.000162799
5550  -4540.1299655511  -0.000041405838 0.00860577  0.00007226  0.0008987   0.000162655
5551  -4540.1298695188   0.000096032264 0.00846779  0.00007271  0.0008360   0.000172388
5552  -4540.1298002848   0.000069234033 0.00264985  0.00002041  0.0008617   0.000151740
5553  -4540.1297720874   0.000028197333 0.00339522  0.00003124  0.0008638   0.000152113
5554  -4540.1297518477   0.000020239765 0.00328435  0.00002895  0.0008545   0.000152748
5555  -4540.1297930370  -0.000041189302 0.00667670  0.00006342  0.0008737   0.000152203
5556  -4540.1297055894   0.000087447545 0.00168805  0.00001600  0.0008735   0.000153469
5557  -4540.1296966646   0.000008924817 0.00187755  0.00001483  0.0008664   0.000153000
5558  -4540.1296848754   0.000011789163 0.00264570  0.00002395  0.0008624   0.000152646
5559  -4540.1296542032   0.000030672278 0.00956770  0.00008644  0.0008609   0.000151993
               *** Restarting incremental Fock matrix formation ***
                             ****Resetting KDIIS****
5560  -4540.1297733407  -0.000119137504 0.00057777  0.00000506  0.0008466   0.000152143
5561  -4540.1297805411  -0.000007200433 0.00100629  0.00000722  0.0008501   0.000151262
5562  -4540.1297715152   0.000009025875 0.00389059  0.00003780  0.0008609   0.000148091
5563  -4540.1297221174   0.000049397828 0.00384647  0.00003555  0.0008655   0.000146835
5564  -4540.1296938217   0.000028295707 0.00349341  0.00003197  0.0008731   0.000146080
5565  -4540.1296501341   0.000043687555 0.01581175  0.00014896  0.0008615   0.000146453
5566  -4540.1294534849   0.000196649272 0.01047059  0.00008873  0.0008652   0.000154076
5567  -4540.1295720056  -0.000118520707 0.00281540  0.00002891  0.0008695   0.000143761
5568  -4540.1295390757   0.000032929865 0.01181440  0.00011005  0.0008698   0.000148159
5569  -4540.1296856993  -0.000146623559 0.01498871  0.00013125  0.0008671   0.000150559
5570  -4540.1295192180   0.000166481273 0.00426884  0.00003926  0.0008536   0.000147831
5571  -4540.1295436913  -0.000024473279 0.00218593  0.00002239  0.0009141   0.000140815
5572  -4540.1295239076   0.000019783648 0.01876438  0.00017252  0.0009417   0.000152780
5573  -4540.1293062821   0.000217625504 0.00387420  0.00003405  0.0009360   0.000160310
5574  -4540.1293481285  -0.000041846359 0.02139383  0.00013582  0.0009819   0.000135032
5575  -4540.1294516460  -0.000103517566 0.02383113  0.00015838  0.0009786   0.000144374
5576  -4540.1293159501   0.000135695968 0.00315888  0.00002152  0.0009651   0.000144649
5577  -4540.1293111704   0.000004779673 0.00804157  0.00007017  0.0009793   0.000147132
5578  -4540.1292211138   0.000090056547 0.02449455  0.00017301  0.0010026   0.000149996
5579  -4540.1291922267   0.000028887102 0.02209774  0.00019359  0.0008530   0.000134286
               *** Restarting incremental Fock matrix formation ***
                             ****Resetting KDIIS****
5580  -4540.1294228736  -0.000230646841 0.00066741  0.00000482  0.0009098   0.000132699
5581  -4540.1294289681  -0.000006094499 0.00234216  0.00002002  0.0009012   0.000128950
5582  -4540.1294535311  -0.000024563034 0.00073425  0.00000365  0.0008962   0.000128169
                          ***Energy convergence achieved***
5583  -4540.1294528144   0.000000716680 0.01024947  0.00009187  0.0008799   0.000127439
5584  -4540.1293517705   0.000101043911 0.00986622  0.00009031  0.0008679   0.000130007
5585  -4540.1294607211  -0.000108950557 0.02265955  0.00019172  0.0008940   0.000125725
5586  -4540.1292341654   0.000226555650 0.02578877  0.00022289  0.0008982   0.000130903
5587  -4540.1289702051   0.000263960370 0.02693596  0.00023270  0.0007799   0.000168237
5588  -4540.1292451919  -0.000274986797 0.01328549  0.00011769  0.0010974   0.000132478
5589  -4540.1291123929   0.000132798981 0.00236405  0.00001633  0.0008782   0.000142095
                          ***Energy convergence achieved***
5590  -4540.1291131616  -0.000000768726 0.00770688  0.00005974  0.0009634   0.000126170
5591  -4540.1290445581   0.000068603468 0.01537249  0.00013104  0.0009470   0.000133864
5592  -4540.1288891903   0.000155367822 0.02630276  0.00022407  0.0009246   0.000149847
5593  -4540.1291548385  -0.000265648220 0.00776320  0.00006669  0.0008669   0.000148195
5594  -4540.1292336986  -0.000078860089 0.00589404  0.00005093  0.0008469   0.000149355
5595  -4540.1292722999  -0.000038601279 0.02238449  0.00016903  0.0008920   0.000123031
5596  -4540.1294637890  -0.000191489053 0.03595261  0.00025290  0.0008205   0.000145300
5597  -4540.1297714978  -0.000307708846 0.02388205  0.00017359  0.0009077   0.000146727
5598  -4540.1295617336   0.000209764248 0.01326049  0.00011101  0.0008671   0.000158995
5599  -4540.1296978531  -0.000136119526 0.02837917  0.00022622  0.0007861   0.000181575
               *** Restarting incremental Fock matrix formation ***
                             ****Resetting KDIIS****
5600  -4540.1294151039   0.000282749172 0.00067318  0.00000445  0.0006656   0.000212958
5601  -4540.1294223452  -0.000007241273 0.00117459  0.00000751  0.0006873   0.000201627
5602  -4540.1294341782  -0.000011832978 0.00488485  0.00004156  0.0007271   0.000182651
5603  -4540.1293900011   0.000044177108 0.00844545  0.00007566  0.0007909   0.000157380
5604  -4540.1293115657   0.000078435365 0.00273280  0.00002459  0.0008737   0.000143309
5605  -4540.1293418276  -0.000030261952 0.01120690  0.00009469  0.0009093   0.000137064
5606  -4540.1292307485   0.000111079153 0.00415799  0.00003725  0.0009452   0.000145518
5607  -4540.1292726402  -0.000041891695 0.00614492  0.00005451  0.0009511   0.000147467
5608  -4540.1292064342   0.000066205944 0.00048144  0.00000427  0.0009255   0.000161966
5609  -4540.1292115406  -0.000005106362 0.01583177  0.00014168  0.0009268   0.000161746
5610  -4540.1293811488  -0.000169608224 0.02661666  0.00022941  0.0008947   0.000135439
5611  -4540.1291103512   0.000270797616 0.02858279  0.00020812  0.0009568   0.000150729
5612  -4540.1293427115  -0.000232360258 0.02585628  0.00020114  0.0008570   0.000165149
5613  -4540.1295861625  -0.000243451008 0.00955021  0.00008025  0.0008074   0.000174822
5614  -4540.1296696049  -0.000083442393 0.01083847  0.00009871  0.0006806   0.000226826
5615  -4540.1295754080   0.000094196915 0.01312110  0.00010460  0.0009926   0.000144042
5616  -4540.1294563724   0.000119035596 0.00254756  0.00002487  0.0009626   0.000149017
5617  -4540.1294867633  -0.000030390984 0.01445854  0.00010689  0.0009671   0.000142506
5618  -4540.1296143276  -0.000127564241 0.00410524  0.00003107  0.0009586   0.000152724
5619  -4540.1295838698   0.000030457816 0.01201435  0.00008326  0.0009277   0.000154031
               *** Restarting incremental Fock matrix formation ***
                             ****Resetting KDIIS****
5620  -4540.1295076182   0.000076251536 0.00091830  0.00000479  0.0008357   0.000139746
5621  -4540.1295134507  -0.000005832485 0.00185794  0.00001278  0.0008392   0.000137374
5622  -4540.1295292276  -0.000015776859 0.00751100  0.00005965  0.0008437   0.000135511
5623  -4540.1294590948   0.000070132763 0.01172233  0.00009454  0.0008425   0.000131928
5624  -4540.1293501704   0.000108924366 0.03560804  0.00030193  0.0008341   0.000140528
5625  -4540.1289955728   0.000354597665 0.04127162  0.00034687  0.0009191   0.000155933
5626  -4540.1294042575  -0.000408684742 0.01563881  0.00012633  0.0008801   0.000131538
5627  -4540.1295552122  -0.000150954625 0.00603719  0.00003613  0.0008934   0.000131713
5628  -4540.1295611430  -0.000005930823 0.00962525  0.00006486  0.0006347   0.000227936
5629  -4540.1295480621   0.000013080900 0.00482271  0.00005267  0.0007505   0.000166031
5630  -4540.1294959360   0.000052126071 0.02609801  0.00021682  0.0007963   0.000161441
5631  -4540.1292484944   0.000247441639 0.01840415  0.00013339  0.0008655   0.000140634
5632  -4540.1294014905  -0.000152996104 0.04026356  0.00030232  0.0009023   0.000137568
5633  -4540.1297615477  -0.000360057195 0.01677450  0.00012053  0.0008345   0.000159368
5634  -4540.1296305471   0.000131000557 0.00836559  0.00007481  0.0008613   0.000138605
5635  -4540.1297109942  -0.000080447047 0.03024592  0.00022220  0.0007634   0.000184390
5636  -4540.1299951278  -0.000284133683 0.06483098  0.00048701  0.0008558   0.000174471
5637  -4540.1293877958   0.000607332024 0.00981097  0.00009444  0.0008209   0.000155708
5638  -4540.1292877042   0.000100091623 0.00610191  0.00003495  0.0007485   0.000176163
5639  -4540.1292535819   0.000034122274 0.01628344  0.00015104  0.0007811   0.000163503
               *** Restarting incremental Fock matrix formation ***
                             ****Resetting KDIIS****
5640  -4540.1290639033   0.000189678629 0.00038471  0.00000450  0.0006085   0.000269495
5641  -4540.1290734937  -0.000009590387 0.00049036  0.00000559  0.0006409   0.000251087
5642  -4540.1290855862  -0.000012092572 0.00210980  0.00002243  0.0007068   0.000217959
slurmstepd: error: *** JOB 5514713 ON c0711a-s13 CANCELLED AT 2023-08-05T23:50:36 DUE TO TIME LIMIT ***
